<?xml version="1.0" encoding="UTF-8"?>

<!-- generated on 2019年09月05日 星期四 16时31分37秒 by Eclipse SUMO GUI Version 1.2.0
<configuration xmlns:xsi="http://www.w3.org/2001/XMLSchema-instance" xsi:noNamespaceSchemaLocation="http://sumo.dlr.de/xsd/sumoConfiguration.xsd">

    <input>
        <net-file value="/home/autolab/zwh/SUMO_Carla/SUMOServer/simulations/Town05/Town05.net.xml"/>
        <route-files value="/home/autolab/zwh/SUMO_Carla/SUMOServer/simulations/Town05/Town05.rou.xml"/>
        <additional-files value="/home/autolab/zwh/SUMO_Carla/SUMOServer/simulations/Town05/Town05.poly.xml"/>
    </input>

    <output>
        <netstate-dump value="/home/autolab/zwh/SUMO_Carla/SUMOServer/simulations/Town05/Town05.sumo.tr"/>
        <tripinfo-output value="/home/autolab/zwh/SUMO_Carla/SUMOServer/simulations/Town05/Town05.tripinfo.xml"/>
        <vehroute-output value="/home/au-->

<routes xmlns:xsi="http://www.w3.org/2001/XMLSchema-instance" xsi:noNamespaceSchemaLocation="http://sumo.dlr.de/xsd/routes_file.xsd">
    <vehicle id="2" depart="2.00" arrival="37.0-->

<routes xmlns:xsi="http://www.w3.org/2001/XMLSchema-instance" xsi:noNamespaceSchemaLocation="http://sumo.dlr.de/xsd/routes_file.xsd">
</routes>
     <route edges="47.0.00 6.0.00 -16.0.00 -25.0.00 -0.0.00 -1.0.00"/>
    </vehicle>

    <vehicle id="3" depart="3.00" arrival="43.00">
        <route edges="-46.0.00 -7.0.00 -5.0.00 -49.0.00 -2.0.00 43.0.00"/>
    </vehicle>

    <vehicle id="19" depart="19.00" arrival="48.00">
        <route edges="-8.0.00 -45.0.00 -4.0.00 -5.0.00 -49.0.00 -50.0.00 52.0.00"/>
    </vehicle>

    <vehicle id="manual_vehicle_1" depart="3.00" arrival="62.00">
        <route edges=":53_10 7.0.00 -47.0.00 -17.0.00 -18.0.00 -40.0.00 -22.0.00 -23.0.00 -43.0.00 -44.0.00"/>
    </vehicle>

    <vehicle id="11" depart="11.00" arrival="67.00">
        <route edges="9.0.00 8.0.00 -5.0.00 -49.0.00 1.0.00 -18.0.00 -40.0.00 -41.0.00 -42.0.00"/>
    </vehicle>

    <vehicle id="15" depart="15.00" arrival="67.00">
        <route edges="18.0.00 17.0.00 47.0.00 -7.0.00 -8.0.00 -9.0.00 -10.0.00"/>
    </vehicle>

    <vehicle id="42" depart="42.00" arrival="67.00">
        <route edges="-0.0.00 -1.0.00 -2.0.00 -3.0.00"/>
    </vehicle>

    <vehicle id="6" depart="6.00" arrival="68.00">
        <route edges="47.0.00 -7.0.00 -5.0.00 -49.0.00 -50.0.00 52.0.00 -23.0.00 42.0.00"/>
    </vehicle>

    <vehicle id="17" depart="17.00" arrival="69.00">
        <route edges="-19.0.00 48.0.00 -39.0.00 25.0.00 16.0.00 33.0.00"/>
    </vehicle>

    <vehicle id="41" depart="41.00" arrival="71.00">
        <route edges="-40.0.00 21.0.00 -29.0.00"/>
    </vehicle>

    <vehicle id="24" depart="24.00" arrival="76.00">
        <route edges="20.0.00 48.0.00 31.0.00 30.0.00 -29.0.00"/>
    </vehicle>

    <vehicle id="44" depart="44.00" arrival="77.00">
        <route edges="-5.0.00 -49.0.00 -50.0.00 52.0.00 -23.0.00 -24.0.00"/>
    </vehicle>

    <vehicle id="33" depart="33.00" arrival="78.00">
        <route edges="17.0.00 47.0.00 -7.0.00 -8.0.00 -45.0.00 -46.0.00 -47.0.00"/>
    </vehicle>

    <vehicle id="5" depart="5.00" arrival="81.00">
        <route edges="37.0.00"/>
    </vehicle>

    <vehicle id="35" depart="35.00" arrival="84.00">
        <route edges="-39.0.00 25.0.00 16.0.00 -6.0.00 -7.0.00 -8.0.00 44.0.00"/>
    </vehicle>

    <vehicle id="30" depart="30.00" arrival="87.00">
        <route edges="-37.0.00"/>
    </vehicle>

    <vehicle id="21" depart="21.00" arrival="92.00">
        <route edges="30.0.00 -21.0.00 -22.0.00 -23.0.00 -24.0.00 11.0.00 10.0.00 9.0.00"/>
    </vehicle>

    <vehicle id="45" depart="45.00" arrival="92.00">
        <route edges="-19.0.00 48.0.00 -39.0.00 -26.0.00 29.0.00 -21.0.00 40.0.00"/>
    </vehicle>

    <vehicle id="50" depart="50.00" arrival="94.00">
        <route edges="46.0.00 -4.0.00 -5.0.00 -49.0.00 1.0.00 0.0.00"/>
    </vehicle>

    <vehicle id="72" depart="72.00" arrival="96.00">
        <route edges="-42.0.00 23.0.00 -52.0.00 50.0.00"/>
    </vehicle>

    <vehicle id="61" depart="61.00" arrival="97.00">
        <route edges="10.0.00 9.0.00 44.0.00 43.0.00 42.0.00"/>
    </vehicle>

    <vehicle id="23" depart="23.00" arrival="98.00">
        <route edges="-46.0.00 -47.0.00 -17.0.00 0.0.00 -26.0.00 29.0.00 28.0.00 27.0.00 -38.0.00"/>
    </vehicle>

    <vehicle id="32" depart="32.00" arrival="103.00">
        <route edges="6.0.00 -16.0.00 -25.0.00 -26.0.00 29.0.00 28.0.00 27.0.00 -38.0.00"/>
    </vehicle>

    <vehicle id="59" depart="59.00" arrival="105.00">
        <route edges="21.0.00 -30.0.00 -31.0.00 -39.0.00 -26.0.00 29.0.00"/>
    </vehicle>

    <vehicle id="49" depart="49.00" arrival="106.00">
        <route edges="20.0.00 48.0.00 -39.0.00 25.0.00 16.0.00 33.0.00"/>
    </vehicle>

    <vehicle id="4" depart="4.00" arrival="107.00">
        <route edges="9.0.00 8.0.00 -5.0.00 -49.0.00 1.0.00 0.0.00 -26.0.00 29.0.00 28.0.00 27.0.00 -38.0.00 -12.0.00 -34.0.00"/>
    </vehicle>

    <vehicle id="27" depart="27.00" arrival="107.00">
        <route edges="-20.0.00 -28.0.00 -30.0.00 -31.0.00 -32.0.00 -33.0.00 15.0.00 14.0.00 -19.0.00"/>
    </vehicle>

    <vehicle id="62" depart="62.00" arrival="111.00">
        <route edges="-19.0.00 48.0.00 -39.0.00 25.0.00 16.0.00 33.0.00"/>
    </vehicle>

    <vehicle id="39" depart="39.00" arrival="116.00">
        <route edges="37.0.00 36.0.00 -13.0.00"/>
    </vehicle>

    <vehicle id="8" depart="8.00" arrival="121.00">
        <route edges="1.0.00 17.0.00 47.0.00 6.0.00 15.0.00 14.0.00 13.0.00 -36.0.00 -37.0.00"/>
    </vehicle>

    <vehicle id="60" depart="60.00" arrival="121.00">
        <route edges="-37.0.00"/>
    </vehicle>

    <vehicle id="82" depart="82.00" arrival="123.00">
        <route edges="-5.0.00 -49.0.00 1.0.00 -18.0.00 -40.0.00 -41.0.00 -42.0.00"/>
    </vehicle>

    <vehicle id="71" depart="71.00" arrival="125.00">
        <route edges="-44.0.00 -45.0.00 -4.0.00 -5.0.00 -49.0.00 -50.0.00 52.0.00 -23.0.00 -24.0.00"/>
    </vehicle>

    <vehicle id="94" depart="94.00" arrival="127.00">
        <route edges="-43.0.00 -44.0.00 -45.0.00 -46.0.00"/>
    </vehicle>

    <vehicle id="51" depart="51.00" arrival="133.00">
        <route edges="-37.0.00 -38.0.00"/>
    </vehicle>

    <vehicle id="37" depart="39.00" arrival="135.00">
        <route edges="-37.0.00 -27.0.00 -28.0.00 -21.0.00 -41.0.00 -42.0.00"/>
    </vehicle>

    <vehicle id="9" depart="9.00" arrival="136.00">
        <route edges="-19.0.00 48.0.00 -39.0.00 -26.0.00 29.0.00 28.0.00 27.0.00 37.0.00"/>
    </vehicle>

    <vehicle id="31" depart="32.00" arrival="137.00">
        <route edges="37.0.00 36.0.00 -13.0.00 -14.0.00 -15.0.00 33.0.00 32.0.00 -48.0.00 -20.0.00 -28.0.00"/>
    </vehicle>

    <vehicle id="69" depart="74.00" arrival="137.00">
        <route edges="37.0.00"/>
    </vehicle>

    <vehicle id="75" depart="75.00" arrival="143.00">
        <route edges="-37.0.00"/>
    </vehicle>

    <vehicle id="14" depart="14.00" arrival="146.00">
        <route edges="51.0.00 41.0.00 -22.0.00 -23.0.00 42.0.00 -51.0.00 -52.0.00 50.0.00 1.0.00 17.0.00 47.0.00 6.0.00 15.0.00 14.0.00 -19.0.00 48.0.00 31.0.00 30.0.00"/>
    </vehicle>

    <vehicle id="22" depart="22.00" arrival="148.00">
        <route edges="37.0.00 36.0.00 -13.0.00 -14.0.00 -15.0.00 -16.0.00 -25.0.00 -0.0.00"/>
    </vehicle>

    <vehicle id="12" depart="12.00" arrival="149.00">
        <route edges="46.0.00 -4.0.00 -5.0.00 -49.0.00 1.0.00 0.0.00 -26.0.00 29.0.00 28.0.00 27.0.00 37.0.00 36.0.00 35.0.00 34.0.00"/>
    </vehicle>

    <vehicle id="54" depart="54.00" arrival="149.00">
        <route edges="10.0.00 9.0.00 8.0.00 -5.0.00 -49.0.00 1.0.00 0.0.00 25.0.00 16.0.00 33.0.00 32.0.00 -48.0.00 -20.0.00"/>
    </vehicle>

    <vehicle id="0" depart="0.00" arrival="150.00">
        <route edges="37.0.00 36.0.00 -13.0.00 -14.0.00 -15.0.00 -16.0.00 -25.0.00 -0.0.00 -1.0.00 -50.0.00 52.0.00"/>
    </vehicle>

    <vehicle id="58" depart="58.00" arrival="150.00">
        <route edges="6.0.00 -16.0.00 -25.0.00 -26.0.00 29.0.00 -21.0.00 -22.0.00"/>
    </vehicle>

    <vehicle id="43" depart="43.00" arrival="153.00">
        <route edges="42.0.00 -51.0.00 -52.0.00 50.0.00 1.0.00 0.0.00 -26.0.00 29.0.00 28.0.00 27.0.00 37.0.00"/>
    </vehicle>

    <vehicle id="87" depart="87.00" arrival="153.00">
        <route edges="-20.0.00 -28.0.00 -30.0.00 -31.0.00 -39.0.00 -26.0.00 29.0.00"/>
    </vehicle>

    <vehicle id="57" depart="57.00" arrival="156.00">
        <route edges="-46.0.00 -7.0.00 -5.0.00 -49.0.00 1.0.00 17.0.00 47.0.00 6.0.00 15.0.00 14.0.00 -19.0.00 48.0.00 31.0.00 30.0.00"/>
    </vehicle>

    <vehicle id="77" depart="77.00" arrival="156.00">
        <route edges="-19.0.00 48.0.00 -39.0.00 25.0.00 16.0.00 33.0.00 32.0.00 -48.0.00 19.0.00"/>
    </vehicle>

    <vehicle id="20" depart="20.00" arrival="160.00">
        <route edges="19.0.00 13.0.00 -36.0.00 -37.0.00 -27.0.00 -28.0.00 -30.0.00 -31.0.00 -39.0.00 25.0.00"/>
    </vehicle>

    <vehicle id="46" depart="46.00" arrival="160.00">
        <route edges="37.0.00 36.0.00 35.0.00 34.0.00 12.0.00 38.0.00"/>
    </vehicle>

    <vehicle id="96" depart="96.00" arrival="165.00">
        <route edges="-9.0.00 -10.0.00 3.0.00 2.0.00 1.0.00 17.0.00 47.0.00 46.0.00"/>
    </vehicle>

    <vehicle id="26" depart="26.00" arrival="166.00">
        <route edges="24.0.00 -43.0.00 -44.0.00 -45.0.00 -4.0.00 -5.0.00 -49.0.00 1.0.00 -18.0.00 -40.0.00 21.0.00 -30.0.00"/>
    </vehicle>

    <vehicle id="38" depart="38.00" arrival="167.00">
        <route edges="19.0.00 13.0.00 -36.0.00 -37.0.00 -27.0.00 -28.0.00 -30.0.00 -31.0.00 -39.0.00 25.0.00 16.0.00"/>
    </vehicle>

    <vehicle id="76" depart="78.00" arrival="168.00">
        <route edges="-37.0.00 -27.0.00 20.0.00"/>
    </vehicle>

    <vehicle id="78" depart="78.00" arrival="169.00">
        <route edges="-34.0.00 -35.0.00 -13.0.00 -14.0.00 -15.0.00 -16.0.00 -25.0.00 -26.0.00 29.0.00"/>
    </vehicle>

    <vehicle id="manual_vehicle_0" depart="0.00" arrival="171.00">
        <route edges=":53_10 7.0.00 -47.0.00 -17.0.00 -18.0.00 -40.0.00 21.0.00 -30.0.00 -31.0.00 -32.0.00 -33.0.00 15.0.00 14.0.00 13.0.00 -36.0.00 -37.0.00 -27.0.00 20.0.00"/>
    </vehicle>

    <vehicle id="29" depart="29.00" arrival="171.00">
        <route edges="37.0.00 36.0.00 -13.0.00 -14.0.00 -15.0.00 -16.0.00 -25.0.00 -0.0.00 -1.0.00 -2.0.00 -44.0.00"/>
    </vehicle>

    <vehicle id="40" depart="42.00" arrival="172.00">
        <route edges="37.0.00 36.0.00 -13.0.00 -14.0.00 -15.0.00 -16.0.00 -25.0.00 -0.0.00 -1.0.00 -50.0.00 52.0.00 -23.0.00"/>
    </vehicle>

    <vehicle id="7" depart="8.00" arrival="178.00">
        <route edges="37.0.00 36.0.00 -13.0.00 -14.0.00 -15.0.00 -16.0.00 -25.0.00 -26.0.00 29.0.00 -30.0.00 -31.0.00 -32.0.00 -33.0.00"/>
    </vehicle>

    <vehicle id="28" depart="28.00" arrival="179.00">
        <route edges="-8.0.00 -45.0.00 -4.0.00 -5.0.00 -49.0.00 1.0.00 0.0.00 -26.0.00 29.0.00 28.0.00 27.0.00 37.0.00 36.0.00 35.0.00 34.0.00 12.0.00 38.0.00"/>
    </vehicle>

    <vehicle id="88" depart="88.00" arrival="179.00">
        <route edges="30.0.00 -21.0.00 40.0.00 18.0.00 17.0.00 47.0.00 6.0.00 15.0.00 14.0.00 -19.0.00"/>
    </vehicle>

    <vehicle id="97" depart="97.00" arrival="179.00">
        <route edges="24.0.00 -43.0.00 -44.0.00 -45.0.00 -4.0.00 -5.0.00 -49.0.00 1.0.00 -18.0.00 -40.0.00 -22.0.00"/>
    </vehicle>

    <vehicle id="74" depart="74.00" arrival="180.00">
        <route edges="52.0.00 -23.0.00 42.0.00 -51.0.00 -52.0.00 50.0.00 1.0.00 0.0.00 25.0.00 16.0.00 33.0.00 32.0.00 -48.0.00 19.0.00"/>
    </vehicle>

    <vehicle id="68" depart="71.00" arrival="181.00">
        <route edges="37.0.00 36.0.00 -13.0.00 -14.0.00 -15.0.00 33.0.00 32.0.00 -48.0.00 -20.0.00"/>
    </vehicle>

    <vehicle id="55" depart="55.00" arrival="182.00">
        <route edges="46.0.00 -4.0.00 -5.0.00 -49.0.00 1.0.00 0.0.00 -26.0.00 29.0.00 28.0.00 27.0.00 -38.0.00 -12.0.00 -34.0.00"/>
    </vehicle>

    <vehicle id="18" depart="20.00" arrival="184.00">
        <route edges="-1.0.00 -2.0.00 -44.0.00 -45.0.00 -4.0.00 -5.0.00 -49.0.00 1.0.00 0.0.00 -26.0.00 29.0.00 28.0.00 27.0.00 -38.0.00 -12.0.00 -34.0.00"/>
    </vehicle>

    <vehicle id="80" depart="80.00" arrival="188.00">
        <route edges="-52.0.00 50.0.00 1.0.00 0.0.00 -26.0.00 29.0.00 28.0.00 27.0.00 37.0.00"/>
    </vehicle>

    <vehicle id="48" depart="48.00" arrival="191.00">
        <route edges="34.0.00 12.0.00 38.0.00 -27.0.00 -28.0.00 -21.0.00 40.0.00 18.0.00 17.0.00 47.0.00 -7.0.00 -8.0.00"/>
    </vehicle>

    <vehicle id="63" depart="63.00" arrival="191.00">
        <route edges="19.0.00 13.0.00 -36.0.00 -37.0.00 -38.0.00"/>
    </vehicle>

    <vehicle id="89" depart="89.00" arrival="192.00">
        <route edges="50.0.00 1.0.00 0.0.00 -26.0.00 29.0.00 28.0.00 27.0.00 37.0.00"/>
    </vehicle>

    <vehicle id="98" depart="98.00" arrival="198.00">
        <route edges="-19.0.00 48.0.00 -39.0.00 -26.0.00 29.0.00 28.0.00 27.0.00 37.0.00"/>
    </vehicle>

    <vehicle id="93" depart="93.00" arrival="200.00">
        <route edges="-9.0.00 -10.0.00 3.0.00 2.0.00 1.0.00 0.0.00 25.0.00 16.0.00 33.0.00 32.0.00 -48.0.00 19.0.00"/>
    </vehicle>

    <vehicle id="13" depart="13.00" arrival="202.00">
        <route edges="-37.0.00 -27.0.00 -28.0.00 -29.0.00 26.0.00 -0.0.00 -1.0.00 -2.0.00 -3.0.00 10.0.00 9.0.00"/>
    </vehicle>

    <vehicle id="86" depart="87.00" arrival="202.00">
        <route edges="-37.0.00 -27.0.00 -28.0.00 -21.0.00 -41.0.00 -51.0.00 -52.0.00"/>
    </vehicle>

    <vehicle id="56" depart="56.00" arrival="205.00">
        <route edges="-6.0.00 -7.0.00 -5.0.00 -49.0.00 1.0.00 17.0.00 47.0.00 6.0.00 15.0.00 14.0.00 13.0.00 -36.0.00 -37.0.00"/>
    </vehicle>

    <vehicle id="10" depart="10.00" arrival="206.00">
        <route edges="19.0.00 13.0.00 -36.0.00 -37.0.00 -27.0.00 -28.0.00 -30.0.00 -31.0.00 -39.0.00 -26.0.00 29.0.00 28.0.00 27.0.00 37.0.00"/>
    </vehicle>

    <vehicle id="66" depart="68.00" arrival="214.00">
        <route edges="37.0.00 36.0.00 -13.0.00 -14.0.00 -15.0.00 -16.0.00 -25.0.00 -26.0.00 29.0.00 -21.0.00 40.0.00 18.0.00 17.0.00 47.0.00 46.0.00"/>
    </vehicle>

    <vehicle id="73" depart="73.00" arrival="214.00">
        <route edges="20.0.00 48.0.00 -39.0.00 -26.0.00 29.0.00 28.0.00 27.0.00 -38.0.00"/>
    </vehicle>

    <vehicle id="53" depart="53.00" arrival="215.00">
        <route edges="-34.0.00 -35.0.00 -13.0.00 -14.0.00 -15.0.00 -16.0.00 -25.0.00 -26.0.00 29.0.00 28.0.00 27.0.00 37.0.00"/>
    </vehicle>

    <vehicle id="36" depart="36.00" arrival="216.00">
        <route edges="-37.0.00 -27.0.00 -28.0.00 -30.0.00 -31.0.00 -39.0.00 -26.0.00 29.0.00 28.0.00 27.0.00 37.0.00"/>
    </vehicle>

    <vehicle id="16" depart="16.00" arrival="217.00">
        <route edges="34.0.00 12.0.00 38.0.00 -27.0.00 -28.0.00 -30.0.00 -31.0.00 -32.0.00 -33.0.00 15.0.00 14.0.00 13.0.00 -36.0.00 -37.0.00"/>
    </vehicle>

    <vehicle id="90" depart="90.00" arrival="218.00">
        <route edges="-37.0.00 -27.0.00 -28.0.00 -21.0.00 -22.0.00 51.0.00 41.0.00"/>
    </vehicle>

    <vehicle id="34" depart="34.00" arrival="219.00">
        <route edges="-34.0.00 -35.0.00 -13.0.00 -14.0.00 -15.0.00 -16.0.00 -25.0.00 -26.0.00 29.0.00 28.0.00 27.0.00 37.0.00"/>
    </vehicle>

    <vehicle id="85" depart="85.00" arrival="224.00">
        <route edges="-52.0.00 50.0.00 1.0.00 0.0.00 -26.0.00 29.0.00 28.0.00 27.0.00 37.0.00 36.0.00 35.0.00 34.0.00"/>
    </vehicle>

    <vehicle id="91" depart="91.00" arrival="226.00">
        <route edges="-24.0.00 11.0.00 10.0.00 9.0.00 8.0.00 -5.0.00 -49.0.00 1.0.00 0.0.00 -26.0.00 29.0.00 28.0.00 27.0.00 -38.0.00"/>
    </vehicle>

    <vehicle id="64" depart="64.00" arrival="228.00">
        <route edges="-34.0.00 -35.0.00 -13.0.00 -14.0.00 -15.0.00 -16.0.00 -25.0.00 -26.0.00 29.0.00 28.0.00 27.0.00 -38.0.00"/>
    </vehicle>

    <vehicle id="81" depart="81.00" arrival="228.00">
        <route edges="19.0.00 13.0.00 -36.0.00 -37.0.00 -27.0.00 -28.0.00 -21.0.00 -22.0.00 -23.0.00 -24.0.00"/>
    </vehicle>

    <vehicle id="95" depart="95.00" arrival="230.00">
        <route edges="-2.0.00 -44.0.00 -45.0.00 -4.0.00 -5.0.00 -49.0.00 1.0.00 17.0.00 47.0.00 6.0.00 15.0.00 14.0.00 13.0.00 -36.0.00 -37.0.00"/>
    </vehicle>

    <vehicle id="99" depart="99.00" arrival="230.00">
        <route edges="-24.0.00 11.0.00 10.0.00 9.0.00 8.0.00 -5.0.00 -49.0.00 1.0.00 17.0.00 47.0.00 6.0.00 15.0.00 14.0.00 13.0.00 -36.0.00 -37.0.00"/>
    </vehicle>

    <vehicle id="92" depart="92.00" arrival="237.00">
        <route edges="46.0.00 -4.0.00 -5.0.00 -49.0.00 1.0.00 17.0.00 47.0.00 6.0.00 15.0.00 14.0.00 13.0.00 -36.0.00 -37.0.00"/>
    </vehicle>

    <vehicle id="52" depart="52.00" arrival="238.00">
        <route edges="37.0.00 36.0.00 -13.0.00 -14.0.00 -15.0.00 33.0.00 32.0.00 -48.0.00 19.0.00 13.0.00 -36.0.00 -37.0.00"/>
    </vehicle>

    <vehicle id="83" depart="83.00" arrival="239.00">
        <route edges="42.0.00 -51.0.00 -52.0.00 50.0.00 1.0.00 17.0.00 47.0.00 6.0.00 15.0.00 14.0.00 13.0.00 -36.0.00 -37.0.00 -27.0.00 20.0.00"/>
    </vehicle>

    <vehicle id="79" depart="79.00" arrival="242.00">
        <route edges="-9.0.00 -10.0.00 3.0.00 2.0.00 1.0.00 0.0.00 -26.0.00 29.0.00 28.0.00 27.0.00 37.0.00 36.0.00 35.0.00 34.0.00 12.0.00 38.0.00"/>
    </vehicle>

