<?xml version="1.0" encoding="UTF-8"?>

<!-- generated on 2019年09月05日 星期四 16时31分37秒 by Eclipse SUMO GUI Version 1.2.0
<configuration xmlns:xsi="http://www.w3.org/2001/XMLSchema-instance" xsi:noNamespaceSchemaLocation="http://sumo.dlr.de/xsd/sumoConfiguration.xsd">

    <input>
        <net-file value="/home/autolab/zwh/SUMO_Carla/SUMOServer/simulations/Town05/Town05.net.xml"/>
        <route-files value="/home/autolab/zwh/SUMO_Carla/SUMOServer/simulations/Town05/Town05.rou.xml"/>
        <additional-files value="/home/autolab/zwh/SUMO_Carla/SUMOServer/simulations/Town05/Town05.poly.xml"/>
    </input>

    <output>
        <netstate-dump value="/home/autolab/zwh/SUMO_Carla/SUMOServer/simulations/Town05/Town05.sumo.tr"/>
        <tripinfo-output value="/home/autolab/zwh/SUMO_Carla/SUMOServer/simulations/Town05/Town05.tripinfo.xml"/>
        <vehroute-output value="/home/au-->

<tripinfos xmlns:xsi="http://www.w3.org/2001/XMLSchema-instance" xsi:noNamespaceSchemaLocation="http://sumo.dlr.de/xsd/tripinfo_file.xsd">
    <tripinfo id="2" depart="2.00" departL-->

<tripinfos xmlns:xsi="http://www.w3.org/2001/XMLSchema-instance" xsi:noNamespaceSchemaLocation="http://sumo.dlr.de/xsd/tripinfo_file.xsd">
</tripinfos>
tion="35.00" routeLength="354.74" waitingTime="0.00" waitingCount="0" stopTime="0.00" timeLoss="8.04" rerouteNo="0" devices="vehroute_2 tripinfo_2" vType="DEFAULT_VEHTYPE" speedFactor="1.01" vaporized=""/>
    <tripinfo id="1" depart="1.00" departLane="47.0.00_0" departPos="5.10" departSpeed="0.00" departDelay="0.00" arrival="40.00" arrivalLane="-1.0.00_0" arrivalPos="50.75" arrivalSpeed="7.46" duration="39.00" routeLength="335.16" waitingTime="0.00" waitingCount="0" stopTime="0.00" timeLoss="10.62" rerouteNo="0" devices="vehroute_1 tripinfo_1" vType="DEFAULT_VEHTYPE" speedFactor="0.94" vaporized=""/>
    <tripinfo id="3" depart="3.00" departLane="-46.0.00_0" departPos="5.10" departSpeed="0.00" departDelay="0.00" arrival="43.00" arrivalLane="43.0.00_1" arrivalPos="61.73" arrivalSpeed="14.32" duration="40.00" routeLength="358.37" waitingTime="0.00" waitingCount="0" stopTime="0.00" timeLoss="13.21" rerouteNo="0" devices="vehroute_3 tripinfo_3" vType="DEFAULT_VEHTYPE" speedFactor="1.08" vaporized=""/>
    <tripinfo id="19" depart="19.00" departLane="-8.0.00_0" departPos="5.10" departSpeed="0.00" departDelay="0.00" arrival="48.00" arrivalLane="52.0.00_1" arrivalPos="48.55" arrivalSpeed="15.61" duration="29.00" routeLength="329.51" waitingTime="0.00" waitingCount="0" stopTime="0.00" timeLoss="6.91" rerouteNo="0" devices="vehroute_19 tripinfo_19" vType="DEFAULT_VEHTYPE" speedFactor="1.16" vaporized=""/>
    <tripinfo id="manual_vehicle_1" depart="3.00" departLane=":53_10_0" departPos="5.10" departSpeed="0.00" departDelay="0.00" arrival="62.00" arrivalLane="-44.0.00_0" arrivalPos="66.97" arrivalSpeed="8.88" duration="59.00" routeLength="534.67" waitingTime="0.00" waitingCount="0" stopTime="0.00" timeLoss="15.68" rerouteNo="0" devices="vehroute_manual_vehicle_1 tripinfo_manual_vehicle_1" vType="DEFAULT_VEHTYPE" speedFactor="0.94" vaporized=""/>
    <tripinfo id="11" depart="11.00" departLane="9.0.00_0" departPos="5.10" departSpeed="0.00" departDelay="0.00" arrival="67.00" arrivalLane="-42.0.00_0" arrivalPos="78.05" arrivalSpeed="13.61" duration="56.00" routeLength="620.98" waitingTime="0.00" waitingCount="0" stopTime="0.00" timeLoss="10.52" rerouteNo="0" devices="vehroute_11 tripinfo_11" vType="DEFAULT_VEHTYPE" speedFactor="1.03" vaporized=""/>
    <tripinfo id="15" depart="15.00" departLane="18.0.00_0" departPos="5.10" departSpeed="0.00" departDelay="0.00" arrival="67.00" arrivalLane="-10.0.00_1" arrivalPos="11.43" arrivalSpeed="11.98" duration="52.00" routeLength="409.22" waitingTime="3.00" waitingCount="2" stopTime="0.00" timeLoss="19.35" rerouteNo="0" devices="vehroute_15 tripinfo_15" vType="DEFAULT_VEHTYPE" speedFactor="0.93" vaporized=""/>
    <tripinfo id="42" depart="42.00" departLane="-0.0.00_0" departPos="5.10" departSpeed="0.00" departDelay="0.00" arrival="67.00" arrivalLane="-3.0.00_0" arrivalPos="56.64" arrivalSpeed="14.13" duration="25.00" routeLength="271.34" waitingTime="0.00" waitingCount="0" stopTime="0.00" timeLoss="6.28" rerouteNo="0" devices="vehroute_42 tripinfo_42" vType="DEFAULT_VEHTYPE" speedFactor="1.09" vaporized=""/>
    <tripinfo id="6" depart="6.00" departLane="47.0.00_0" departPos="5.10" departSpeed="0.00" departDelay="0.00" arrival="68.00" arrivalLane="42.0.00_1" arrivalPos="89.01" arrivalSpeed="13.75" duration="62.00" routeLength="463.41" waitingTime="12.00" waitingCount="1" stopTime="0.00" timeLoss="27.24" rerouteNo="0" devices="vehroute_6 tripinfo_6" vType="DEFAULT_VEHTYPE" speedFactor="1.05" vaporized=""/>
    <tripinfo id="17" depart="17.00" departLane="-19.0.00_0" departPos="5.10" departSpeed="0.00" departDelay="0.00" arrival="69.00" arrivalLane="33.0.00_0" arrivalPos="110.24" arrivalSpeed="12.44" duration="52.00" routeLength="521.89" waitingTime="0.00" waitingCount="0" stopTime="0.00" timeLoss="9.42" rerouteNo="0" devices="vehroute_17 tripinfo_17" vType="DEFAULT_VEHTYPE" speedFactor="0.94" vaporized=""/>
    <tripinfo id="41" depart="41.00" departLane="-40.0.00_0" departPos="5.10" departSpeed="0.00" departDelay="0.00" arrival="71.00" arrivalLane="-29.0.00_1" arrivalPos="45.92" arrivalSpeed="12.37" duration="30.00" routeLength="184.01" waitingTime="7.00" waitingCount="1" stopTime="0.00" timeLoss="14.48" rerouteNo="0" devices="vehroute_41 tripinfo_41" vType="DEFAULT_VEHTYPE" speedFactor="0.96" vaporized=""/>
    <tripinfo id="24" depart="24.00" departLane="20.0.00_0" departPos="5.10" departSpeed="0.00" departDelay="0.00" arrival="76.00" arrivalLane="-29.0.00_0" arrivalPos="45.92" arrivalSpeed="10.34" duration="52.00" routeLength="461.41" waitingTime="0.00" waitingCount="0" stopTime="0.00" timeLoss="8.09" rerouteNo="0" devices="vehroute_24 tripinfo_24" vType="DEFAULT_VEHTYPE" speedFactor="0.83" vaporized=""/>
    <tripinfo id="44" depart="44.00" departLane="-5.0.00_0" departPos="5.10" departSpeed="0.00" departDelay="0.00" arrival="77.00" arrivalLane="-24.0.00_0" arrivalPos="121.92" arrivalSpeed="13.53" duration="33.00" routeLength="346.55" waitingTime="0.00" waitingCount="0" stopTime="0.00" timeLoss="6.76" rerouteNo="0" devices="vehroute_44 tripinfo_44" vType="DEFAULT_VEHTYPE" speedFactor="1.04" vaporized=""/>
    <tripinfo id="33" depart="33.00" departLane="17.0.00_0" departPos="5.10" departSpeed="0.00" departDelay="0.00" arrival="78.00" arrivalLane="-47.0.00_0" arrivalPos="54.41" arrivalSpeed="16.25" duration="45.00" routeLength="465.14" waitingTime="0.00" waitingCount="0" stopTime="0.00" timeLoss="14.99" rerouteNo="0" devices="vehroute_33 tripinfo_33" vType="DEFAULT_VEHTYPE" speedFactor="1.17" vaporized=""/>
    <tripinfo id="5" depart="5.00" departLane="37.0.00_0" departPos="5.10" departSpeed="0.00" departDelay="0.00" arrival="81.00" arrivalLane="37.0.00_0" arrivalPos="802.91" arrivalSpeed="10.92" duration="76.00" routeLength="797.81" waitingTime="0.00" waitingCount="0" stopTime="0.00" timeLoss="6.52" rerouteNo="0" devices="vehroute_5 tripinfo_5" vType="DEFAULT_VEHTYPE" speedFactor="0.83" vaporized=""/>
    <tripinfo id="35" depart="35.00" departLane="-39.0.00_0" departPos="5.10" departSpeed="0.00" departDelay="0.00" arrival="84.00" arrivalLane="44.0.00_1" arrivalPos="66.97" arrivalSpeed="13.25" duration="49.00" routeLength="427.48" waitingTime="3.00" waitingCount="1" stopTime="0.00" timeLoss="16.16" rerouteNo="0" devices="vehroute_35 tripinfo_35" vType="DEFAULT_VEHTYPE" speedFactor="1.02" vaporized=""/>
    <tripinfo id="30" depart="30.00" departLane="-37.0.00_0" departPos="5.10" departSpeed="0.00" departDelay="0.00" arrival="87.00" arrivalLane="-37.0.00_0" arrivalPos="835.80" arrivalSpeed="16.12" duration="57.00" routeLength="830.70" waitingTime="0.00" waitingCount="0" stopTime="0.00" timeLoss="5.97" rerouteNo="0" devices="vehroute_30 tripinfo_30" vType="DEFAULT_VEHTYPE" speedFactor="1.18" vaporized=""/>
    <tripinfo id="21" depart="21.00" departLane="30.0.00_0" departPos="5.10" departSpeed="0.00" departDelay="0.00" arrival="92.00" arrivalLane="9.0.00_1" arrivalPos="117.84" arrivalSpeed="13.97" duration="71.00" routeLength="631.85" waitingTime="10.00" waitingCount="1" stopTime="0.00" timeLoss="25.70" rerouteNo="0" devices="vehroute_21 tripinfo_21" vType="DEFAULT_VEHTYPE" speedFactor="1.01" vaporized=""/>
    <tripinfo id="45" depart="45.00" departLane="-19.0.00_0" departPos="5.10" departSpeed="0.00" departDelay="0.00" arrival="92.00" arrivalLane="40.0.00_0" arrivalPos="41.82" arrivalSpeed="14.42" duration="47.00" routeLength="531.58" waitingTime="0.00" waitingCount="0" stopTime="0.00" timeLoss="8.82" rerouteNo="0" devices="vehroute_45 tripinfo_45" vType="DEFAULT_VEHTYPE" speedFactor="1.09" vaporized=""/>
    <tripinfo id="50" depart="50.00" departLane="46.0.00_0" departPos="5.10" departSpeed="0.00" departDelay="0.00" arrival="94.00" arrivalLane="0.0.00_1" arrivalPos="54.91" arrivalSpeed="11.42" duration="44.00" routeLength="377.23" waitingTime="1.00" waitingCount="1" stopTime="0.00" timeLoss="10.11" rerouteNo="0" devices="vehroute_50 tripinfo_50" vType="DEFAULT_VEHTYPE" speedFactor="0.85" vaporized=""/>
    <tripinfo id="72" depart="72.00" departLane="-42.0.00_0" departPos="5.10" departSpeed="0.00" departDelay="0.00" arrival="96.00" arrivalLane="50.0.00_2" arrivalPos="13.60" arrivalSpeed="12.76" duration="24.00" routeLength="209.81" waitingTime="0.00" waitingCount="0" stopTime="0.00" timeLoss="6.50" rerouteNo="0" devices="vehroute_72 tripinfo_72" vType="DEFAULT_VEHTYPE" speedFactor="0.94" vaporized=""/>
    <tripinfo id="61" depart="61.00" departLane="10.0.00_0" departPos="5.10" departSpeed="0.00" departDelay="0.00" arrival="97.00" arrivalLane="42.0.00_0" arrivalPos="89.01" arrivalSpeed="14.47" duration="36.00" routeLength="404.36" waitingTime="0.00" waitingCount="0" stopTime="0.00" timeLoss="8.88" rerouteNo="0" devices="vehroute_61 tripinfo_61" vType="DEFAULT_VEHTYPE" speedFactor="1.12" vaporized=""/>
    <tripinfo id="23" depart="23.00" departLane="-46.0.00_0" departPos="5.10" departSpeed="0.00" departDelay="0.00" arrival="98.00" arrivalLane="-38.0.00_1" arrivalPos="311.75" arrivalSpeed="11.64" duration="75.00" routeLength="758.77" waitingTime="0.00" waitingCount="0" stopTime="0.00" timeLoss="10.48" rerouteNo="0" devices="vehroute_23 tripinfo_23" vType="DEFAULT_VEHTYPE" speedFactor="0.89" vaporized=""/>
    <tripinfo id="32" depart="32.00" departLane="6.0.00_0" departPos="5.10" departSpeed="0.00" departDelay="0.00" arrival="103.00" arrivalLane="-38.0.00_1" arrivalPos="311.75" arrivalSpeed="13.65" duration="71.00" routeLength="660.31" waitingTime="4.00" waitingCount="2" stopTime="0.00" timeLoss="22.55" rerouteNo="0" devices="vehroute_32 tripinfo_32" vType="DEFAULT_VEHTYPE" speedFactor="1.01" vaporized=""/>
    <tripinfo id="59" depart="59.00" departLane="21.0.00_0" departPos="5.10" departSpeed="0.00" departDelay="0.00" arrival="105.00" arrivalLane="29.0.00_1" arrivalPos="45.92" arrivalSpeed="13.44" duration="46.00" routeLength="352.88" waitingTime="3.00" waitingCount="2" stopTime="0.00" timeLoss="18.28" rerouteNo="0" devices="vehroute_59 tripinfo_59" vType="DEFAULT_VEHTYPE" speedFactor="0.97" vaporized=""/>
    <tripinfo id="49" depart="49.00" departLane="20.0.00_0" departPos="5.10" departSpeed="0.00" departDelay="0.00" arrival="106.00" arrivalLane="33.0.00_0" arrivalPos="110.24" arrivalSpeed="10.95" duration="57.00" routeLength="536.74" waitingTime="0.00" waitingCount="0" stopTime="0.00" timeLoss="7.92" rerouteNo="0" devices="vehroute_49 tripinfo_49" vType="DEFAULT_VEHTYPE" speedFactor="0.85" vaporized=""/>
    <tripinfo id="4" depart="4.00" departLane="9.0.00_0" departPos="5.10" departSpeed="0.00" departDelay="0.00" arrival="107.00" arrivalLane="-34.0.00_0" arrivalPos="284.41" arrivalSpeed="13.24" duration="103.00" routeLength="1234.36" waitingTime="0.00" waitingCount="0" stopTime="0.00" timeLoss="13.48" rerouteNo="0" devices="vehroute_4 tripinfo_4" vType="DEFAULT_VEHTYPE" speedFactor="1.03" vaporized=""/>
    <tripinfo id="27" depart="27.00" departLane="-20.0.00_0" departPos="5.10" departSpeed="0.00" departDelay="0.00" arrival="107.00" arrivalLane="-19.0.00_1" arrivalPos="214.91" arrivalSpeed="12.82" duration="80.00" routeLength="806.21" waitingTime="0.00" waitingCount="0" stopTime="0.00" timeLoss="14.47" rerouteNo="0" devices="vehroute_27 tripinfo_27" vType="DEFAULT_VEHTYPE" speedFactor="0.95" vaporized=""/>
    <tripinfo id="62" depart="62.00" departLane="-19.0.00_0" departPos="5.10" departSpeed="0.00" departDelay="0.00" arrival="111.00" arrivalLane="33.0.00_0" arrivalPos="110.24" arrivalSpeed="12.83" duration="49.00" routeLength="521.89" waitingTime="0.00" waitingCount="0" stopTime="0.00" timeLoss="8.41" rerouteNo="0" devices="vehroute_62 tripinfo_62" vType="DEFAULT_VEHTYPE" speedFactor="1.02" vaporized=""/>
    <tripinfo id="39" depart="39.00" departLane="37.0.00_0" departPos="5.10" departSpeed="0.00" departDelay="0.00" arrival="116.00" arrivalLane="-13.0.00_0" arrivalPos="19.98" arrivalSpeed="10.64" duration="77.00" routeLength="849.14" waitingTime="0.00" waitingCount="0" stopTime="0.00" timeLoss="7.63" rerouteNo="0" devices="vehroute_39 tripinfo_39" vType="DEFAULT_VEHTYPE" speedFactor="0.90" vaporized=""/>
    <tripinfo id="8" depart="8.00" departLane="1.0.00_0" departPos="5.10" departSpeed="0.00" departDelay="0.00" arrival="121.00" arrivalLane="-37.0.00_0" arrivalPos="835.80" arrivalSpeed="12.87" duration="113.00" routeLength="1182.30" waitingTime="1.00" waitingCount="1" stopTime="0.00" timeLoss="18.99" rerouteNo="0" devices="vehroute_8 tripinfo_8" vType="DEFAULT_VEHTYPE" speedFactor="0.94" vaporized=""/>
    <tripinfo id="60" depart="60.00" departLane="-37.0.00_0" departPos="5.10" departSpeed="0.00" departDelay="0.00" arrival="121.00" arrivalLane="-37.0.00_1" arrivalPos="835.80" arrivalSpeed="14.89" duration="61.00" routeLength="830.70" waitingTime="0.00" waitingCount="0" stopTime="0.00" timeLoss="5.12" rerouteNo="0" devices="vehroute_60 tripinfo_60" vType="DEFAULT_VEHTYPE" speedFactor="1.08" vaporized=""/>
    <tripinfo id="82" depart="82.00" departLane="-5.0.00_0" departPos="5.10" departSpeed="0.00" departDelay="0.00" arrival="123.00" arrivalLane="-42.0.00_0" arrivalPos="78.05" arrivalSpeed="13.96" duration="41.00" routeLength="429.41" waitingTime="0.00" waitingCount="0" stopTime="0.00" timeLoss="8.64" rerouteNo="0" devices="vehroute_82 tripinfo_82" vType="DEFAULT_VEHTYPE" speedFactor="1.02" vaporized=""/>
    <tripinfo id="71" depart="71.00" departLane="-44.0.00_0" departPos="5.10" departSpeed="0.00" departDelay="0.00" arrival="125.00" arrivalLane="-24.0.00_0" arrivalPos="121.92" arrivalSpeed="13.40" duration="54.00" routeLength="571.39" waitingTime="0.00" waitingCount="0" stopTime="0.00" timeLoss="9.44" rerouteNo="0" devices="vehroute_71 tripinfo_71" vType="DEFAULT_VEHTYPE" speedFactor="0.97" vaporized=""/>
    <tripinfo id="94" depart="94.00" departLane="-43.0.00_0" departPos="5.10" departSpeed="0.00" departDelay="0.00" arrival="127.00" arrivalLane="-46.0.00_1" arrivalPos="76.84" arrivalSpeed="14.87" duration="33.00" routeLength="348.27" waitingTime="0.00" waitingCount="0" stopTime="0.00" timeLoss="9.98" rerouteNo="0" devices="vehroute_94 tripinfo_94" vType="DEFAULT_VEHTYPE" speedFactor="1.09" vaporized=""/>
    <tripinfo id="51" depart="51.00" departLane="-37.0.00_0" departPos="5.10" departSpeed="0.00" departDelay="0.00" arrival="133.00" arrivalLane="-38.0.00_0" arrivalPos="311.75" arrivalSpeed="15.36" duration="82.00" routeLength="1164.45" waitingTime="0.00" waitingCount="0" stopTime="0.00" timeLoss="9.88" rerouteNo="0" devices="vehroute_51 tripinfo_51" vType="DEFAULT_VEHTYPE" speedFactor="1.17" vaporized=""/>
    <tripinfo id="37" depart="39.00" departLane="-37.0.00_0" departPos="5.10" departSpeed="0.00" departDelay="2.00" arrival="135.00" arrivalLane="-42.0.00_1" arrivalPos="78.05" arrivalSpeed="16.15" duration="96.00" routeLength="1229.63" waitingTime="0.00" waitingCount="0" stopTime="0.00" timeLoss="18.72" rerouteNo="0" devices="vehroute_37 tripinfo_37" vType="DEFAULT_VEHTYPE" speedFactor="1.18" vaporized=""/>
    <tripinfo id="9" depart="9.00" departLane="-19.0.00_0" departPos="5.10" departSpeed="0.00" departDelay="0.00" arrival="136.00" arrivalLane="37.0.00_0" arrivalPos="802.91" arrivalSpeed="11.86" duration="127.00" routeLength="1331.70" waitingTime="0.00" waitingCount="0" stopTime="0.00" timeLoss="11.85" rerouteNo="0" devices="vehroute_9 tripinfo_9" vType="DEFAULT_VEHTYPE" speedFactor="0.86" vaporized=""/>
    <tripinfo id="31" depart="32.00" departLane="37.0.00_0" departPos="5.10" departSpeed="0.00" departDelay="1.00" arrival="137.00" arrivalLane="-28.0.00_0" arrivalPos="31.36" arrivalSpeed="11.69" duration="105.00" routeLength="1360.20" waitingTime="0.00" waitingCount="0" stopTime="0.00" timeLoss="17.64" rerouteNo="0" devices="vehroute_31 tripinfo_31" vType="DEFAULT_VEHTYPE" speedFactor="1.15" vaporized=""/>
    <tripinfo id="69" depart="74.00" departLane="37.0.00_0" departPos="5.10" departSpeed="0.00" departDelay="5.00" arrival="137.00" arrivalLane="37.0.00_1" arrivalPos="802.91" arrivalSpeed="13.94" duration="63.00" routeLength="797.81" waitingTime="0.00" waitingCount="0" stopTime="0.00" timeLoss="5.97" rerouteNo="0" devices="vehroute_69 tripinfo_69" vType="DEFAULT_VEHTYPE" speedFactor="1.02" vaporized=""/>
    <tripinfo id="75" depart="75.00" departLane="-37.0.00_0" departPos="5.10" departSpeed="0.00" departDelay="0.00" arrival="143.00" arrivalLane="-37.0.00_0" arrivalPos="835.80" arrivalSpeed="12.66" duration="68.00" routeLength="830.70" waitingTime="0.00" waitingCount="0" stopTime="0.00" timeLoss="6.79" rerouteNo="0" devices="vehroute_75 tripinfo_75" vType="DEFAULT_VEHTYPE" speedFactor="0.98" vaporized=""/>
    <tripinfo id="14" depart="14.00" departLane="51.0.00_0" departPos="5.10" departSpeed="0.00" departDelay="0.00" arrival="146.00" arrivalLane="30.0.00_1" arrivalPos="111.58" arrivalSpeed="13.36" duration="132.00" routeLength="1233.04" waitingTime="3.00" waitingCount="2" stopTime="0.00" timeLoss="34.54" rerouteNo="0" devices="vehroute_14 tripinfo_14" vType="DEFAULT_VEHTYPE" speedFactor="0.99" vaporized=""/>
    <tripinfo id="22" depart="22.00" departLane="37.0.00_0" departPos="5.10" departSpeed="0.00" departDelay="0.00" arrival="148.00" arrivalLane="-0.0.00_0" arrivalPos="54.91" arrivalSpeed="12.42" duration="126.00" routeLength="1060.74" waitingTime="25.00" waitingCount="1" stopTime="0.00" timeLoss="46.02" rerouteNo="0" devices="vehroute_22 tripinfo_22" vType="DEFAULT_VEHTYPE" speedFactor="0.98" vaporized=""/>
    <tripinfo id="12" depart="12.00" departLane="46.0.00_0" departPos="5.10" departSpeed="0.00" departDelay="0.00" arrival="149.00" arrivalLane="34.0.00_0" arrivalPos="267.99" arrivalSpeed="14.44" duration="137.00" routeLength="1702.79" waitingTime="0.00" waitingCount="0" stopTime="0.00" timeLoss="17.34" rerouteNo="0" devices="vehroute_12 tripinfo_12" vType="DEFAULT_VEHTYPE" speedFactor="1.05" vaporized=""/>
    <tripinfo id="54" depart="54.00" departLane="10.0.00_0" departPos="5.10" departSpeed="0.00" departDelay="0.00" arrival="149.00" arrivalLane="-20.0.00_1" arrivalPos="214.26" arrivalSpeed="12.93" duration="95.00" routeLength="907.13" waitingTime="4.00" waitingCount="1" stopTime="0.00" timeLoss="25.29" rerouteNo="0" devices="vehroute_54 tripinfo_54" vType="DEFAULT_VEHTYPE" speedFactor="1.00" vaporized=""/>
    <tripinfo id="0" depart="0.00" departLane="37.0.00_0" departPos="5.10" departSpeed="0.00" departDelay="0.00" arrival="150.00" arrivalLane="52.0.00_2" arrivalPos="48.55" arrivalSpeed="13.84" duration="150.00" routeLength="1222.67" waitingTime="49.00" waitingCount="1" stopTime="0.00" timeLoss="65.20" rerouteNo="0" devices="vehroute_0 tripinfo_0" vType="DEFAULT_VEHTYPE" speedFactor="1.06" vaporized=""/>
    <tripinfo id="58" depart="58.00" departLane="6.0.00_0" departPos="5.10" departSpeed="0.00" departDelay="0.00" arrival="150.00" arrivalLane="-22.0.00_0" arrivalPos="46.13" arrivalSpeed="13.65" duration="92.00" routeLength="356.36" waitingTime="51.00" waitingCount="1" stopTime="0.00" timeLoss="64.75" rerouteNo="0" devices="vehroute_58 tripinfo_58" vType="DEFAULT_VEHTYPE" speedFactor="1.02" vaporized=""/>
    <tripinfo id="43" depart="43.00" departLane="42.0.00_0" departPos="5.10" departSpeed="0.00" departDelay="0.00" arrival="153.00" arrivalLane="37.0.00_0" arrivalPos="802.91" arrivalSpeed="14.25" duration="110.00" routeLength="1369.67" waitingTime="0.00" waitingCount="0" stopTime="0.00" timeLoss="12.31" rerouteNo="0" devices="vehroute_43 tripinfo_43" vType="DEFAULT_VEHTYPE" speedFactor="1.04" vaporized=""/>
    <tripinfo id="87" depart="87.00" departLane="-20.0.00_0" departPos="5.10" departSpeed="0.00" departDelay="0.00" arrival="153.00" arrivalLane="29.0.00_1" arrivalPos="45.92" arrivalSpeed="14.03" duration="66.00" routeLength="542.38" waitingTime="9.00" waitingCount="2" stopTime="0.00" timeLoss="25.87" rerouteNo="0" devices="vehroute_87 tripinfo_87" vType="DEFAULT_VEHTYPE" speedFactor="1.04" vaporized=""/>
    <tripinfo id="57" depart="57.00" departLane="-46.0.00_0" departPos="5.10" departSpeed="0.00" departDelay="0.00" arrival="156.00" arrivalLane="30.0.00_1" arrivalPos="111.58" arrivalSpeed="14.70" duration="99.00" routeLength="919.36" waitingTime="4.00" waitingCount="1" stopTime="0.00" timeLoss="36.29" rerouteNo="0" devices="vehroute_57 tripinfo_57" vType="DEFAULT_VEHTYPE" speedFactor="1.14" vaporized=""/>
    <tripinfo id="77" depart="77.00" departLane="-19.0.00_0" departPos="5.10" departSpeed="0.00" departDelay="0.00" arrival="156.00" arrivalLane="19.0.00_1" arrivalPos="224.84" arrivalSpeed="12.68" duration="79.00" routeLength="818.56" waitingTime="0.00" waitingCount="0" stopTime="0.00" timeLoss="15.42" rerouteNo="0" devices="vehroute_77 tripinfo_77" vType="DEFAULT_VEHTYPE" speedFactor="0.98" vaporized=""/>
    <tripinfo id="20" depart="20.00" departLane="19.0.00_0" departPos="5.10" departSpeed="0.00" departDelay="0.00" arrival="160.00" arrivalLane="25.0.00_0" arrivalPos="16.10" arrivalSpeed="11.44" duration="140.00" routeLength="1471.39" waitingTime="5.00" waitingCount="1" stopTime="0.00" timeLoss="32.05" rerouteNo="0" devices="vehroute_20 tripinfo_20" vType="DEFAULT_VEHTYPE" speedFactor="1.02" vaporized=""/>
    <tripinfo id="46" depart="46.00" departLane="37.0.00_0" departPos="5.10" departSpeed="0.00" departDelay="0.00" arrival="160.00" arrivalLane="38.0.00_0" arrivalPos="295.33" arrivalSpeed="12.97" duration="114.00" routeLength="1448.68" waitingTime="0.00" waitingCount="0" stopTime="0.00" timeLoss="8.82" rerouteNo="0" devices="vehroute_46 tripinfo_46" vType="DEFAULT_VEHTYPE" speedFactor="1.00" vaporized=""/>
    <tripinfo id="96" depart="96.00" departLane="-9.0.00_0" departPos="5.10" departSpeed="0.00" departDelay="0.00" arrival="165.00" arrivalLane="46.0.00_1" arrivalPos="87.02" arrivalSpeed="13.66" duration="69.00" routeLength="555.61" waitingTime="7.00" waitingCount="2" stopTime="0.00" timeLoss="27.50" rerouteNo="0" devices="vehroute_96 tripinfo_96" vType="DEFAULT_VEHTYPE" speedFactor="1.01" vaporized=""/>
    <tripinfo id="26" depart="26.00" departLane="24.0.00_0" departPos="5.10" departSpeed="0.00" departDelay="0.00" arrival="166.00" arrivalLane="-30.0.00_0" arrivalPos="122.43" arrivalSpeed="12.59" duration="140.00" routeLength="904.64" waitingTime="40.00" waitingCount="1" stopTime="0.00" timeLoss="65.26" rerouteNo="0" devices="vehroute_26 tripinfo_26" vType="DEFAULT_VEHTYPE" speedFactor="0.92" vaporized=""/>
    <tripinfo id="38" depart="38.00" departLane="19.0.00_0" departPos="5.10" departSpeed="0.00" departDelay="0.00" arrival="167.00" arrivalLane="16.0.00_0" arrivalPos="46.60" arrivalSpeed="14.02" duration="129.00" routeLength="1518.09" waitingTime="0.00" waitingCount="0" stopTime="0.00" timeLoss="25.57" rerouteNo="0" devices="vehroute_38 tripinfo_38" vType="DEFAULT_VEHTYPE" speedFactor="1.10" vaporized=""/>
    <tripinfo id="76" depart="78.00" departLane="-37.0.00_0" departPos="5.10" departSpeed="0.00" departDelay="2.00" arrival="168.00" arrivalLane="20.0.00_1" arrivalPos="224.33" arrivalSpeed="13.08" duration="90.00" routeLength="1121.64" waitingTime="0.00" waitingCount="0" stopTime="0.00" timeLoss="10.13" rerouteNo="0" devices="vehroute_76 tripinfo_76" vType="DEFAULT_VEHTYPE" speedFactor="1.03" vaporized=""/>
    <tripinfo id="78" depart="78.00" departLane="-34.0.00_0" departPos="5.10" departSpeed="0.00" departDelay="0.00" arrival="169.00" arrivalLane="29.0.00_0" arrivalPos="45.92" arrivalSpeed="13.06" duration="91.00" routeLength="586.97" waitingTime="22.00" waitingCount="3" stopTime="0.00" timeLoss="48.56" rerouteNo="0" devices="vehroute_78 tripinfo_78" vType="DEFAULT_VEHTYPE" speedFactor="1.01" vaporized=""/>
    <tripinfo id="manual_vehicle_0" depart="0.00" departLane=":53_10_0" departPos="5.10" departSpeed="0.00" departDelay="0.00" arrival="171.00" arrivalLane="20.0.00_1" arrivalPos="224.33" arrivalSpeed="14.69" duration="171.00" routeLength="1870.97" waitingTime="6.00" waitingCount="2" stopTime="0.00" timeLoss="39.48" rerouteNo="0" devices="vehroute_manual_vehicle_0 tripinfo_manual_vehicle_0" vType="DEFAULT_VEHTYPE" speedFactor="1.06" vaporized=""/>
    <tripinfo id="29" depart="29.00" departLane="37.0.00_0" departPos="5.10" departSpeed="0.00" departDelay="0.00" arrival="171.00" arrivalLane="-44.0.00_0" arrivalPos="66.97" arrivalSpeed="11.68" duration="142.00" routeLength="1279.99" waitingTime="17.00" waitingCount="1" stopTime="0.00" timeLoss="40.71" rerouteNo="0" devices="vehroute_29 tripinfo_29" vType="DEFAULT_VEHTYPE" speedFactor="0.93" vaporized=""/>
    <tripinfo id="40" depart="42.00" departLane="37.0.00_0" departPos="5.10" departSpeed="0.00" departDelay="2.00" arrival="172.00" arrivalLane="-23.0.00_0" arrivalPos="35.66" arrivalSpeed="14.07" duration="130.00" routeLength="1273.76" waitingTime="13.00" waitingCount="1" stopTime="0.00" timeLoss="38.88" rerouteNo="0" devices="vehroute_40 tripinfo_40" vType="DEFAULT_VEHTYPE" speedFactor="1.03" vaporized=""/>
    <tripinfo id="7" depart="8.00" departLane="37.0.00_0" departPos="5.10" departSpeed="0.00" departDelay="1.00" arrival="178.00" arrivalLane="-33.0.00_1" arrivalPos="121.43" arrivalSpeed="12.17" duration="170.00" routeLength="1377.27" waitingTime="34.00" waitingCount="2" stopTime="0.00" timeLoss="55.99" rerouteNo="0" devices="vehroute_7 tripinfo_7" vType="DEFAULT_VEHTYPE" speedFactor="0.89" vaporized=""/>
    <tripinfo id="28" depart="28.00" departLane="-8.0.00_0" departPos="5.10" departSpeed="0.00" departDelay="0.00" arrival="179.00" arrivalLane="38.0.00_0" arrivalPos="295.33" arrivalSpeed="15.31" duration="151.00" routeLength="2042.47" waitingTime="0.00" waitingCount="0" stopTime="0.00" timeLoss="18.21" rerouteNo="0" devices="vehroute_28 tripinfo_28" vType="DEFAULT_VEHTYPE" speedFactor="1.13" vaporized=""/>
    <tripinfo id="88" depart="88.00" departLane="30.0.00_0" departPos="5.10" departSpeed="0.00" departDelay="0.00" arrival="179.00" arrivalLane="-19.0.00_1" arrivalPos="214.91" arrivalSpeed="13.15" duration="91.00" routeLength="704.73" waitingTime="14.00" waitingCount="2" stopTime="0.00" timeLoss="37.30" rerouteNo="0" devices="vehroute_88 tripinfo_88" vType="DEFAULT_VEHTYPE" speedFactor="1.01" vaporized=""/>
    <tripinfo id="97" depart="97.00" departLane="24.0.00_0" departPos="5.10" departSpeed="0.00" departDelay="0.00" arrival="179.00" arrivalLane="-22.0.00_0" arrivalPos="46.13" arrivalSpeed="12.02" duration="82.00" routeLength="740.25" waitingTime="1.00" waitingCount="1" stopTime="0.00" timeLoss="18.25" rerouteNo="0" devices="vehroute_97 tripinfo_97" vType="DEFAULT_VEHTYPE" speedFactor="0.91" vaporized=""/>
    <tripinfo id="74" depart="74.00" departLane="52.0.00_0" departPos="5.10" departSpeed="0.00" departDelay="0.00" arrival="180.00" arrivalLane="19.0.00_1" arrivalPos="224.84" arrivalSpeed="12.58" duration="106.00" routeLength="1003.14" waitingTime="1.00" waitingCount="1" stopTime="0.00" timeLoss="24.30" rerouteNo="0" devices="vehroute_74 tripinfo_74" vType="DEFAULT_VEHTYPE" speedFactor="0.96" vaporized=""/>
    <tripinfo id="68" depart="71.00" departLane="37.0.00_0" departPos="5.10" departSpeed="0.00" departDelay="3.00" arrival="181.00" arrivalLane="-20.0.00_1" arrivalPos="214.26" arrivalSpeed="13.78" duration="110.00" routeLength="1317.63" waitingTime="0.00" waitingCount="0" stopTime="0.00" timeLoss="15.52" rerouteNo="0" devices="vehroute_68 tripinfo_68" vType="DEFAULT_VEHTYPE" speedFactor="1.04" vaporized=""/>
    <tripinfo id="55" depart="55.00" departLane="46.0.00_0" departPos="5.10" departSpeed="0.00" departDelay="0.00" arrival="182.00" arrivalLane="-34.0.00_1" arrivalPos="284.41" arrivalSpeed="13.13" duration="127.00" routeLength="1205.07" waitingTime="2.00" waitingCount="1" stopTime="0.00" timeLoss="37.49" rerouteNo="0" devices="vehroute_55 tripinfo_55" vType="DEFAULT_VEHTYPE" speedFactor="1.00" vaporized=""/>
    <tripinfo id="18" depart="20.00" departLane="-1.0.00_0" departPos="5.10" departSpeed="0.00" departDelay="2.00" arrival="184.00" arrivalLane="-34.0.00_0" arrivalPos="284.41" arrivalSpeed="12.45" duration="164.00" routeLength="1395.40" waitingTime="10.00" waitingCount="3" stopTime="0.00" timeLoss="52.60" rerouteNo="0" devices="vehroute_18 tripinfo_18" vType="DEFAULT_VEHTYPE" speedFactor="0.94" vaporized=""/>
    <tripinfo id="80" depart="80.00" departLane="-52.0.00_0" departPos="5.10" departSpeed="0.00" departDelay="0.00" arrival="188.00" arrivalLane="37.0.00_0" arrivalPos="802.91" arrivalSpeed="13.32" duration="108.00" routeLength="1195.50" waitingTime="0.00" waitingCount="0" stopTime="0.00" timeLoss="22.24" rerouteNo="0" devices="vehroute_80 tripinfo_80" vType="DEFAULT_VEHTYPE" speedFactor="1.03" vaporized=""/>