<?xml version="1.0" encoding="UTF-8"?>

<!-- generated on Thu Sep  5 16:52:58 2019 by Eclipse SUMO Version 1.2.0
<configuration xmlns:xsi="http://www.w3.org/2001/XMLSchema-instance" xsi:noNamespaceSchemaLocation="http://sumo.dlr.de/xsd/sumoConfiguration.xsd">

    <input>
        <net-file value="simulations/Town04/Town04.net.xml"/>
        <route-files value="simulations/Town04/Town04.rou.xml"/>
        <additional-files value="simulations/Town04/Town04.poly.xml"/>
    </input>

    <output>
        <netstate-dump value="simulations/Town04/Town04.sumo.tr"/>
        <tripinfo-output value="simulations/Town04/Town04.tripinfo.xml"/>
        <vehroute-output value="simulations/Town04/Town04.vehroutes.xml"/>
    </output>

    <time>
        <begin value="0"/>
        <end value="1000"/>
    </time>

    <traci_server>
        <remote-port value="51119"/>
    </traci_server>

</configuration>
-->

<tripinfos xmlns:xsi="http://www.w3.org/2001/XMLSchema-instance" xsi:noNamespaceSchemaLocation="http://sumo.dlr.de/xsd/tripinfo_file.xsd">
    <tripinfo id="7" depart="7.00" departLane="30.0.00_0" departPos="5.10" departSpeed="0.00" departDelay="0.00" arrival="55.00" arrivalLane="-35.0.00_0" arrivalPos="272.41" arrivalSpeed="13.57" duration="48.00" routeLength="519.63" waitingTime="0.00" waitingCount="0" stopTime="0.00" timeLoss="10.12" rerouteNo="0" devices="vehroute_7 tripinfo_7" vType="DEFAULT_VEHTYPE" speedFactor="1.05" vaporized=""/>
    <tripinfo id="23" depart="23.00" departLane="-35.0.00_0" departPos="5.10" departSpeed="0.00" departDelay="0.00" arrival="60.00" arrivalLane="-25.0.00_0" arrivalPos="96.16" arrivalSpeed="12.74" duration="37.00" routeLength="400.46" waitingTime="0.00" waitingCount="0" stopTime="0.00" timeLoss="7.41" rerouteNo="0" devices="vehroute_23 tripinfo_23" vType="DEFAULT_VEHTYPE" speedFactor="1.01" vaporized=""/>
    <tripinfo id="26" depart="26.00" departLane="-27.0.00_0" departPos="5.10" departSpeed="0.00" departDelay="0.00" arrival="61.00" arrivalLane="-51.0.00_0" arrivalPos="221.29" arrivalSpeed="11.72" duration="35.00" routeLength="324.10" waitingTime="0.00" waitingCount="0" stopTime="0.00" timeLoss="6.86" rerouteNo="0" devices="vehroute_26 tripinfo_26" vType="DEFAULT_VEHTYPE" speedFactor="0.89" vaporized=""/>
    <tripinfo id="4" depart="4.00" departLane="51.0.00_0" departPos="5.10" departSpeed="0.00" departDelay="0.00" arrival="63.00" arrivalLane="3.0.00_0" arrivalPos="37.36" arrivalSpeed="13.88" duration="59.00" routeLength="506.97" waitingTime="4.00" waitingCount="1" stopTime="0.00" timeLoss="23.48" rerouteNo="0" devices="vehroute_4 tripinfo_4" vType="DEFAULT_VEHTYPE" speedFactor="1.08" vaporized=""/>
    <tripinfo id="51" depart="51.00" departLane="24.0.00_0" departPos="5.10" departSpeed="0.00" departDelay="0.00" arrival="78.00" arrivalLane="1.0.00_0" arrivalPos="89.53" arrivalSpeed="14.12" duration="27.00" routeLength="287.58" waitingTime="0.00" waitingCount="0" stopTime="0.00" timeLoss="6.04" rerouteNo="0" devices="vehroute_51 tripinfo_51" vType="DEFAULT_VEHTYPE" speedFactor="1.04" vaporized=""/>
    <tripinfo id="37" depart="37.00" departLane="-3.0.00_0" departPos="5.10" departSpeed="0.00" departDelay="0.00" arrival="80.00" arrivalLane="-9.0.00_0" arrivalPos="55.82" arrivalSpeed="13.21" duration="43.00" routeLength="403.89" waitingTime="0.00" waitingCount="0" stopTime="0.00" timeLoss="10.73" rerouteNo="0" devices="vehroute_37 tripinfo_37" vType="DEFAULT_VEHTYPE" speedFactor="1.01" vaporized=""/>
    <tripinfo id="55" depart="55.00" departLane="-0.0.00_0" departPos="5.10" departSpeed="0.00" departDelay="0.00" arrival="92.00" arrivalLane="-25.0.00_0" arrivalPos="96.16" arrivalSpeed="11.83" duration="37.00" routeLength="357.83" waitingTime="0.00" waitingCount="0" stopTime="0.00" timeLoss="6.64" rerouteNo="0" devices="vehroute_55 tripinfo_55" vType="DEFAULT_VEHTYPE" speedFactor="0.90" vaporized=""/>
    <tripinfo id="61" depart="61.00" departLane="11.0.00_0" departPos="5.10" departSpeed="0.00" departDelay="0.00" arrival="100.00" arrivalLane="51.0.00_0" arrivalPos="215.81" arrivalSpeed="13.95" duration="39.00" routeLength="455.75" waitingTime="0.00" waitingCount="0" stopTime="0.00" timeLoss="5.90" rerouteNo="0" devices="vehroute_61 tripinfo_61" vType="DEFAULT_VEHTYPE" speedFactor="1.02" vaporized=""/>
    <tripinfo id="67" depart="67.00" departLane="29.0.00_0" departPos="5.10" departSpeed="0.00" departDelay="0.00" arrival="103.00" arrivalLane="-5.0.00_0" arrivalPos="104.34" arrivalSpeed="11.59" duration="36.00" routeLength="273.71" waitingTime="4.00" waitingCount="1" stopTime="0.00" timeLoss="12.66" rerouteNo="0" devices="vehroute_67 tripinfo_67" vType="DEFAULT_VEHTYPE" speedFactor="0.90" vaporized=""/>
    <tripinfo id="10" depart="10.00" departLane="-45.0.00_0" departPos="5.10" departSpeed="0.00" departDelay="0.00" arrival="113.00" arrivalLane="-48.0.00_0" arrivalPos="81.46" arrivalSpeed="11.78" duration="103.00" routeLength="1130.81" waitingTime="0.00" waitingCount="0" stopTime="0.00" timeLoss="7.63" rerouteNo="0" devices="vehroute_10 tripinfo_10" vType="DEFAULT_VEHTYPE" speedFactor="0.86" vaporized=""/>
    <tripinfo id="25" depart="25.00" departLane="-46.0.00_0" departPos="5.10" departSpeed="0.00" departDelay="0.00" arrival="116.00" arrivalLane="-51.0.00_0" arrivalPos="221.29" arrivalSpeed="13.24" duration="91.00" routeLength="1078.21" waitingTime="0.00" waitingCount="0" stopTime="0.00" timeLoss="10.36" rerouteNo="0" devices="vehroute_25 tripinfo_25" vType="DEFAULT_VEHTYPE" speedFactor="0.98" vaporized=""/>
    <tripinfo id="57" depart="57.00" departLane="-51.0.00_0" departPos="5.10" departSpeed="0.00" departDelay="0.00" arrival="117.00" arrivalLane="-32.0.00_0" arrivalPos="36.17" arrivalSpeed="10.90" duration="60.00" routeLength="565.68" waitingTime="0.00" waitingCount="0" stopTime="0.00" timeLoss="10.33" rerouteNo="0" devices="vehroute_57 tripinfo_57" vType="DEFAULT_VEHTYPE" speedFactor="0.85" vaporized=""/>
    <tripinfo id="69" depart="69.00" departLane="45.0.00_0" departPos="5.10" departSpeed="0.00" departDelay="0.00" arrival="119.00" arrivalLane="6.0.00_0" arrivalPos="63.14" arrivalSpeed="13.08" duration="50.00" routeLength="631.87" waitingTime="0.00" waitingCount="0" stopTime="0.00" timeLoss="5.29" rerouteNo="0" devices="vehroute_69 tripinfo_69" vType="DEFAULT_VEHTYPE" speedFactor="1.02" vaporized=""/>
    <tripinfo id="56" depart="56.00" departLane="-9.0.00_0" departPos="5.10" departSpeed="0.00" departDelay="0.00" arrival="123.00" arrivalLane="-38.0.00_0" arrivalPos="266.45" arrivalSpeed="10.97" duration="67.00" routeLength="649.45" waitingTime="0.00" waitingCount="0" stopTime="0.00" timeLoss="10.95" rerouteNo="0" devices="vehroute_56 tripinfo_56" vType="DEFAULT_VEHTYPE" speedFactor="0.88" vaporized=""/>
    <tripinfo id="91" depart="91.00" departLane="28.0.00_0" departPos="5.10" departSpeed="0.00" departDelay="0.00" arrival="123.00" arrivalLane="-30.0.00_0" arrivalPos="44.79" arrivalSpeed="14.85" duration="32.00" routeLength="295.02" waitingTime="0.00" waitingCount="0" stopTime="0.00" timeLoss="9.59" rerouteNo="0" devices="vehroute_91 tripinfo_91" vType="DEFAULT_VEHTYPE" speedFactor="1.09" vaporized=""/>
    <tripinfo id="92" depart="92.00" departLane="24.0.00_0" departPos="5.10" departSpeed="0.00" departDelay="0.00" arrival="124.00" arrivalLane="-5.0.00_0" arrivalPos="104.34" arrivalSpeed="13.15" duration="32.00" routeLength="179.07" waitingTime="9.00" waitingCount="1" stopTime="0.00" timeLoss="18.18" rerouteNo="0" devices="vehroute_92 tripinfo_92" vType="DEFAULT_VEHTYPE" speedFactor="1.03" vaporized=""/>
    <tripinfo id="81" depart="82.00" departLane="-46.0.00_0" departPos="5.10" departSpeed="0.00" departDelay="1.00" arrival="139.00" arrivalLane="-10.0.00_0" arrivalPos="36.28" arrivalSpeed="13.48" duration="57.00" routeLength="702.41" waitingTime="0.00" waitingCount="0" stopTime="0.00" timeLoss="6.62" rerouteNo="0" devices="vehroute_81 tripinfo_81" vType="DEFAULT_VEHTYPE" speedFactor="1.02" vaporized=""/>
    <tripinfo id="90" depart="90.00" departLane="5.0.00_0" departPos="5.10" departSpeed="0.00" departDelay="0.00" arrival="141.00" arrivalLane="-51.0.00_0" arrivalPos="221.29" arrivalSpeed="13.51" duration="51.00" routeLength="618.52" waitingTime="0.00" waitingCount="0" stopTime="0.00" timeLoss="6.71" rerouteNo="0" devices="vehroute_90 tripinfo_90" vType="DEFAULT_VEHTYPE" speedFactor="1.01" vaporized=""/>
    <tripinfo id="18" depart="18.00" departLane="-35.0.00_0" departPos="5.10" departSpeed="0.00" departDelay="0.00" arrival="148.00" arrivalLane="-41.0.00_0" arrivalPos="248.08" arrivalSpeed="11.06" duration="130.00" routeLength="1467.57" waitingTime="0.00" waitingCount="0" stopTime="0.00" timeLoss="9.22" rerouteNo="0" devices="vehroute_18 tripinfo_18" vType="DEFAULT_VEHTYPE" speedFactor="0.88" vaporized=""/>
    <tripinfo id="16" depart="16.00" departLane="-45.0.00_0" departPos="5.10" departSpeed="0.00" departDelay="0.00" arrival="150.00" arrivalLane="35.0.00_0" arrivalPos="294.62" arrivalSpeed="12.82" duration="134.00" routeLength="1665.92" waitingTime="0.00" waitingCount="0" stopTime="0.00" timeLoss="12.88" rerouteNo="0" devices="vehroute_16 tripinfo_16" vType="DEFAULT_VEHTYPE" speedFactor="0.99" vaporized=""/>
    <tripinfo id="38" depart="38.00" departLane="1.0.00_0" departPos="5.10" departSpeed="0.00" departDelay="0.00" arrival="150.00" arrivalLane="-41.0.00_1" arrivalPos="248.08" arrivalSpeed="15.58" duration="112.00" routeLength="1543.18" waitingTime="0.00" waitingCount="0" stopTime="0.00" timeLoss="15.21" rerouteNo="0" devices="vehroute_38 tripinfo_38" vType="DEFAULT_VEHTYPE" speedFactor="1.17" vaporized=""/>
    <tripinfo id="32" depart="32.00" departLane="-40.0.00_0" departPos="5.10" departSpeed="0.00" departDelay="0.00" arrival="151.00" arrivalLane="-48.0.00_0" arrivalPos="81.46" arrivalSpeed="15.11" duration="119.00" routeLength="1727.64" waitingTime="0.00" waitingCount="0" stopTime="0.00" timeLoss="8.47" rerouteNo="0" devices="vehroute_32 tripinfo_32" vType="DEFAULT_VEHTYPE" speedFactor="1.13" vaporized=""/>
    <tripinfo id="35" depart="35.00" departLane="-45.0.00_0" departPos="5.10" departSpeed="0.00" departDelay="0.00" arrival="152.00" arrivalLane="25.0.00_0" arrivalPos="90.58" arrivalSpeed="15.80" duration="117.00" routeLength="1602.51" waitingTime="0.00" waitingCount="0" stopTime="0.00" timeLoss="16.93" rerouteNo="0" devices="vehroute_35 tripinfo_35" vType="DEFAULT_VEHTYPE" speedFactor="1.18" vaporized=""/>
    <tripinfo id="95" depart="95.00" departLane="5.0.00_0" departPos="5.10" departSpeed="0.00" departDelay="0.00" arrival="152.00" arrivalLane="-38.0.00_1" arrivalPos="266.45" arrivalSpeed="13.43" duration="57.00" routeLength="653.56" waitingTime="0.00" waitingCount="0" stopTime="0.00" timeLoss="9.16" rerouteNo="0" devices="vehroute_95 tripinfo_95" vType="DEFAULT_VEHTYPE" speedFactor="1.02" vaporized=""/>
    <tripinfo id="29" depart="29.00" departLane="34.0.00_0" departPos="5.10" departSpeed="0.00" departDelay="0.00" arrival="153.00" arrivalLane="-35.0.00_0" arrivalPos="272.41" arrivalSpeed="11.69" duration="124.00" routeLength="1411.71" waitingTime="0.00" waitingCount="0" stopTime="0.00" timeLoss="12.84" rerouteNo="0" devices="vehroute_29 tripinfo_29" vType="DEFAULT_VEHTYPE" speedFactor="0.92" vaporized=""/>
    <tripinfo id="14" depart="14.00" departLane="-41.0.00_0" departPos="5.10" departSpeed="0.00" departDelay="0.00" arrival="159.00" arrivalLane="0.0.00_0" arrivalPos="38.30" arrivalSpeed="13.11" duration="145.00" routeLength="1871.01" waitingTime="0.00" waitingCount="0" stopTime="0.00" timeLoss="14.57" rerouteNo="0" devices="vehroute_14 tripinfo_14" vType="DEFAULT_VEHTYPE" speedFactor="1.05" vaporized=""/>
    <tripinfo id="73" depart="73.00" departLane="15.0.00_0" departPos="5.10" departSpeed="0.00" departDelay="0.00" arrival="160.00" arrivalLane="-50.0.00_0" arrivalPos="166.47" arrivalSpeed="13.34" duration="87.00" routeLength="1003.69" waitingTime="0.00" waitingCount="0" stopTime="0.00" timeLoss="14.00" rerouteNo="0" devices="vehroute_73 tripinfo_73" vType="DEFAULT_VEHTYPE" speedFactor="1.02" vaporized=""/>
    <tripinfo id="12" depart="12.00" departLane="-23.0.00_0" departPos="5.10" departSpeed="0.00" departDelay="0.00" arrival="162.00" arrivalLane="-22.0.00_0" arrivalPos="509.71" arrivalSpeed="14.69" duration="150.00" routeLength="1953.41" waitingTime="1.00" waitingCount="1" stopTime="0.00" timeLoss="19.66" rerouteNo="0" devices="vehroute_12 tripinfo_12" vType="DEFAULT_VEHTYPE" speedFactor="1.09" vaporized=""/>
    <tripinfo id="74" depart="74.00" departLane="34.0.00_0" departPos="5.10" departSpeed="0.00" departDelay="0.00" arrival="165.00" arrivalLane="-41.0.00_0" arrivalPos="248.08" arrivalSpeed="13.49" duration="91.00" routeLength="957.30" waitingTime="10.00" waitingCount="1" stopTime="0.00" timeLoss="20.81" rerouteNo="0" devices="vehroute_74 tripinfo_74" vType="DEFAULT_VEHTYPE" speedFactor="0.99" vaporized=""/>
    <tripinfo id="17" depart="17.00" departLane="-22.0.00_0" departPos="5.10" departSpeed="0.00" departDelay="0.00" arrival="167.00" arrivalLane="-23.0.00_1" arrivalPos="460.56" arrivalSpeed="12.30" duration="150.00" routeLength="1793.07" waitingTime="0.00" waitingCount="0" stopTime="0.00" timeLoss="10.72" rerouteNo="0" devices="vehroute_17 tripinfo_17" vType="DEFAULT_VEHTYPE" speedFactor="0.93" vaporized=""/>
    <tripinfo id="15" depart="15.00" departLane="-40.0.00_0" departPos="5.10" departSpeed="0.00" departDelay="0.00" arrival="173.00" arrivalLane="25.0.00_0" arrivalPos="90.58" arrivalSpeed="14.75" duration="158.00" routeLength="2199.34" waitingTime="0.00" waitingCount="0" stopTime="0.00" timeLoss="14.63" rerouteNo="0" devices="vehroute_15 tripinfo_15" vType="DEFAULT_VEHTYPE" speedFactor="1.12" vaporized=""/>
    <tripinfo id="71" depart="76.00" departLane="-45.0.00_0" departPos="5.10" departSpeed="0.00" departDelay="5.00" arrival="173.00" arrivalLane="-22.0.00_0" arrivalPos="509.71" arrivalSpeed="14.64" duration="97.00" routeLength="1168.96" waitingTime="1.00" waitingCount="1" stopTime="0.00" timeLoss="18.53" rerouteNo="0" devices="vehroute_71 tripinfo_71" vType="DEFAULT_VEHTYPE" speedFactor="1.08" vaporized=""/>
    <tripinfo id="33" depart="33.00" departLane="-47.0.00_0" departPos="5.10" departSpeed="0.00" departDelay="0.00" arrival="175.00" arrivalLane="-40.0.00_0" arrivalPos="259.91" arrivalSpeed="11.91" duration="142.00" routeLength="1484.60" waitingTime="5.00" waitingCount="1" stopTime="0.00" timeLoss="24.35" rerouteNo="0" devices="vehroute_33 tripinfo_33" vType="DEFAULT_VEHTYPE" speedFactor="0.93" vaporized=""/>
    <tripinfo id="53" depart="53.00" departLane="47.0.00_0" departPos="5.10" departSpeed="0.00" departDelay="0.00" arrival="176.00" arrivalLane="39.0.00_0" arrivalPos="137.97" arrivalSpeed="14.26" duration="123.00" routeLength="1718.51" waitingTime="0.00" waitingCount="0" stopTime="0.00" timeLoss="8.42" rerouteNo="0" devices="vehroute_53 tripinfo_53" vType="DEFAULT_VEHTYPE" speedFactor="1.09" vaporized=""/>
    <tripinfo id="64" depart="64.00" departLane="31.0.00_0" departPos="5.10" departSpeed="0.00" departDelay="0.00" arrival="179.00" arrivalLane="-35.0.00_1" arrivalPos="272.41" arrivalSpeed="12.94" duration="115.00" routeLength="1142.04" waitingTime="19.00" waitingCount="1" stopTime="0.00" timeLoss="33.01" rerouteNo="0" devices="vehroute_64 tripinfo_64" vType="DEFAULT_VEHTYPE" speedFactor="1.00" vaporized=""/>
    <tripinfo id="46" depart="46.00" departLane="-38.0.00_0" departPos="5.10" departSpeed="0.00" departDelay="0.00" arrival="191.00" arrivalLane="-45.0.00_0" arrivalPos="607.96" arrivalSpeed="12.45" duration="145.00" routeLength="1683.12" waitingTime="0.00" waitingCount="0" stopTime="0.00" timeLoss="9.72" rerouteNo="0" devices="vehroute_46 tripinfo_46" vType="DEFAULT_VEHTYPE" speedFactor="0.90" vaporized=""/>
    <tripinfo id="49" depart="49.00" departLane="34.0.00_0" departPos="5.10" departSpeed="0.00" departDelay="0.00" arrival="198.00" arrivalLane="32.0.00_0" arrivalPos="30.65" arrivalSpeed="13.05" duration="149.00" routeLength="1150.12" waitingTime="38.00" waitingCount="2" stopTime="0.00" timeLoss="61.16" rerouteNo="0" devices="vehroute_49 tripinfo_49" vType="DEFAULT_VEHTYPE" speedFactor="0.96" vaporized=""/>
    <tripinfo id="93" depart="93.00" departLane="-50.0.00_0" departPos="5.10" departSpeed="0.00" departDelay="0.00" arrival="206.00" arrivalLane="-40.0.00_0" arrivalPos="259.91" arrivalSpeed="13.76" duration="113.00" routeLength="1450.45" waitingTime="0.00" waitingCount="0" stopTime="0.00" timeLoss="7.46" rerouteNo="0" devices="vehroute_93 tripinfo_93" vType="DEFAULT_VEHTYPE" speedFactor="1.00" vaporized=""/>
    <tripinfo id="5" depart="5.00" departLane="50.0.00_0" departPos="5.10" departSpeed="0.00" departDelay="0.00" arrival="210.00" arrivalLane="25.0.00_0" arrivalPos="90.58" arrivalSpeed="13.94" duration="205.00" routeLength="2628.26" waitingTime="0.00" waitingCount="0" stopTime="0.00" timeLoss="19.30" rerouteNo="0" devices="vehroute_5 tripinfo_5" vType="DEFAULT_VEHTYPE" speedFactor="1.03" vaporized=""/>
    <tripinfo id="1" depart="1.00" departLane="9.0.00_0" departPos="5.10" departSpeed="0.00" departDelay="0.00" arrival="220.00" arrivalLane="-46.0.00_0" arrivalPos="180.89" arrivalSpeed="12.12" duration="219.00" routeLength="2495.92" waitingTime="0.00" waitingCount="0" stopTime="0.00" timeLoss="24.49" rerouteNo="0" devices="vehroute_1 tripinfo_1" vType="DEFAULT_VEHTYPE" speedFactor="0.94" vaporized=""/>
    <tripinfo id="43" depart="43.00" departLane="-51.0.00_0" departPos="5.10" departSpeed="0.00" departDelay="0.00" arrival="226.00" arrivalLane="-45.0.00_2" arrivalPos="607.96" arrivalSpeed="16.03" duration="183.00" routeLength="2376.63" waitingTime="4.00" waitingCount="1" stopTime="0.00" timeLoss="34.91" rerouteNo="0" devices="vehroute_43 tripinfo_43" vType="DEFAULT_VEHTYPE" speedFactor="1.18" vaporized=""/>
    <tripinfo id="3" depart="3.00" departLane="-5.0.00_0" departPos="5.10" departSpeed="0.00" departDelay="0.00" arrival="227.00" arrivalLane="-25.0.00_0" arrivalPos="96.16" arrivalSpeed="12.76" duration="224.00" routeLength="2832.42" waitingTime="0.00" waitingCount="0" stopTime="0.00" timeLoss="19.01" rerouteNo="0" devices="vehroute_3 tripinfo_3" vType="DEFAULT_VEHTYPE" speedFactor="1.01" vaporized=""/>
    <tripinfo id="21" depart="21.00" departLane="35.0.00_0" departPos="5.10" departSpeed="0.00" departDelay="0.00" arrival="236.00" arrivalLane="51.0.00_0" arrivalPos="215.81" arrivalSpeed="15.46" duration="215.00" routeLength="2813.49" waitingTime="8.00" waitingCount="2" stopTime="0.00" timeLoss="37.66" rerouteNo="0" devices="vehroute_21 tripinfo_21" vType="DEFAULT_VEHTYPE" speedFactor="1.16" vaporized=""/>
    <tripinfo id="79" depart="80.00" departLane="-40.0.00_0" departPos="5.10" departSpeed="0.00" departDelay="1.00" arrival="255.00" arrivalLane="7.0.00_0" arrivalPos="32.30" arrivalSpeed="13.77" duration="175.00" routeLength="2207.57" waitingTime="0.00" waitingCount="0" stopTime="0.00" timeLoss="19.02" rerouteNo="0" devices="vehroute_79 tripinfo_79" vType="DEFAULT_VEHTYPE" speedFactor="1.04" vaporized=""/>
    <tripinfo id="54" depart="54.00" departLane="38.0.00_0" departPos="5.10" departSpeed="0.00" departDelay="0.00" arrival="257.00" arrivalLane="-45.0.00_1" arrivalPos="607.96" arrivalSpeed="12.94" duration="203.00" routeLength="2485.14" waitingTime="5.00" waitingCount="1" stopTime="0.00" timeLoss="22.03" rerouteNo="0" devices="vehroute_54 tripinfo_54" vType="DEFAULT_VEHTYPE" speedFactor="1.00" vaporized=""/>
    <tripinfo id="27" depart="27.00" departLane="-51.0.00_0" departPos="5.10" departSpeed="0.00" departDelay="0.00" arrival="260.00" arrivalLane="-45.0.00_0" arrivalPos="607.96" arrivalSpeed="10.47" duration="233.00" routeLength="2376.63" waitingTime="0.00" waitingCount="0" stopTime="0.00" timeLoss="21.54" rerouteNo="0" devices="vehroute_27 tripinfo_27" vType="DEFAULT_VEHTYPE" speedFactor="0.83" vaporized=""/>
    <tripinfo id="70" depart="70.00" departLane="-7.0.00_0" departPos="5.10" departSpeed="0.00" departDelay="0.00" arrival="270.00" arrivalLane="-46.0.00_1" arrivalPos="180.89" arrivalSpeed="12.97" duration="200.00" routeLength="2424.30" waitingTime="0.00" waitingCount="0" stopTime="0.00" timeLoss="17.99" rerouteNo="0" devices="vehroute_70 tripinfo_70" vType="DEFAULT_VEHTYPE" speedFactor="0.97" vaporized=""/>
    <tripinfo id="62" depart="66.00" departLane="-23.0.00_0" departPos="5.10" departSpeed="0.00" departDelay="4.00" arrival="271.00" arrivalLane="-36.0.00_0" arrivalPos="88.33" arrivalSpeed="15.18" duration="205.00" routeLength="2377.63" waitingTime="13.00" waitingCount="3" stopTime="0.00" timeLoss="47.19" rerouteNo="0" devices="vehroute_62 tripinfo_62" vType="DEFAULT_VEHTYPE" speedFactor="1.10" vaporized=""/>
    <tripinfo id="52" depart="52.00" departLane="33.0.00_0" departPos="5.10" departSpeed="0.00" departDelay="0.00" arrival="276.00" arrivalLane="50.0.00_1" arrivalPos="181.85" arrivalSpeed="13.36" duration="224.00" routeLength="3024.98" waitingTime="0.00" waitingCount="0" stopTime="0.00" timeLoss="15.01" rerouteNo="0" devices="vehroute_52 tripinfo_52" vType="DEFAULT_VEHTYPE" speedFactor="1.04" vaporized=""/>
    <tripinfo id="6" depart="6.00" departLane="-37.0.00_0" departPos="5.10" departSpeed="0.00" departDelay="0.00" arrival="277.00" arrivalLane="-51.0.00_0" arrivalPos="221.29" arrivalSpeed="11.20" duration="271.00" routeLength="2887.97" waitingTime="0.00" waitingCount="0" stopTime="0.00" timeLoss="18.61" rerouteNo="0" devices="vehroute_6 tripinfo_6" vType="DEFAULT_VEHTYPE" speedFactor="0.83" vaporized=""/>
    <tripinfo id="41" depart="41.00" departLane="50.0.00_0" departPos="5.10" departSpeed="0.00" departDelay="0.00" arrival="277.00" arrivalLane="5.0.00_0" arrivalPos="98.76" arrivalSpeed="12.50" duration="236.00" routeLength="2727.07" waitingTime="4.00" waitingCount="1" stopTime="0.00" timeLoss="31.53" rerouteNo="0" devices="vehroute_41 tripinfo_41" vType="DEFAULT_VEHTYPE" speedFactor="0.97" vaporized=""/>
    <tripinfo id="84" depart="84.00" departLane="39.0.00_0" departPos="5.10" departSpeed="0.00" departDelay="0.00" arrival="285.00" arrivalLane="-45.0.00_0" arrivalPos="607.96" arrivalSpeed="14.27" duration="201.00" routeLength="2666.01" waitingTime="0.00" waitingCount="0" stopTime="0.00" timeLoss="18.11" rerouteNo="0" devices="vehroute_84 tripinfo_84" vType="DEFAULT_VEHTYPE" speedFactor="1.06" vaporized=""/>
    <tripinfo id="0" depart="0.00" departLane="38.0.00_0" departPos="5.10" departSpeed="0.00" departDelay="0.00" arrival="286.00" arrivalLane="-52.0.00_0" arrivalPos="107.01" arrivalSpeed="14.25" duration="286.00" routeLength="3392.49" waitingTime="7.00" waitingCount="2" stopTime="0.00" timeLoss="52.38" rerouteNo="0" devices="vehroute_0 tripinfo_0" vType="DEFAULT_VEHTYPE" speedFactor="1.06" vaporized=""/>
    <tripinfo id="76" depart="76.00" departLane="44.0.00_0" departPos="5.10" departSpeed="0.00" departDelay="0.00" arrival="290.00" arrivalLane="-6.0.00_0" arrivalPos="63.26" arrivalSpeed="11.55" duration="214.00" routeLength="2298.33" waitingTime="6.00" waitingCount="1" stopTime="0.00" timeLoss="25.31" rerouteNo="0" devices="vehroute_76 tripinfo_76" vType="DEFAULT_VEHTYPE" speedFactor="0.88" vaporized=""/>
    <tripinfo id="80" depart="80.00" departLane="50.0.00_0" departPos="5.10" departSpeed="0.00" departDelay="0.00" arrival="298.00" arrivalLane="18.0.00_0" arrivalPos="73.09" arrivalSpeed="13.37" duration="218.00" routeLength="2520.29" waitingTime="2.00" waitingCount="1" stopTime="0.00" timeLoss="36.97" rerouteNo="0" devices="vehroute_80 tripinfo_80" vType="DEFAULT_VEHTYPE" speedFactor="1.02" vaporized=""/>
    <tripinfo id="20" depart="20.00" departLane="-25.0.00_0" departPos="5.10" departSpeed="0.00" departDelay="0.00" arrival="302.00" arrivalLane="-22.0.00_0" arrivalPos="509.71" arrivalSpeed="12.46" duration="282.00" routeLength="2669.03" waitingTime="0.00" waitingCount="0" stopTime="0.00" timeLoss="75.29" rerouteNo="0" devices="vehroute_20 tripinfo_20" vType="DEFAULT_VEHTYPE" speedFactor="0.94" vaporized=""/>
    <tripinfo id="77" depart="77.00" departLane="-23.0.00_0" departPos="5.10" departSpeed="0.00" departDelay="0.00" arrival="306.00" arrivalLane="-22.0.00_1" arrivalPos="509.71" arrivalSpeed="11.56" duration="229.00" routeLength="1953.41" waitingTime="9.00" waitingCount="2" stopTime="0.00" timeLoss="72.76" rerouteNo="0" devices="vehroute_77 tripinfo_77" vType="DEFAULT_VEHTYPE" speedFactor="0.91" vaporized=""/>
    <tripinfo id="59" depart="65.00" departLane="-38.0.00_0" departPos="5.10" departSpeed="0.00" departDelay="6.00" arrival="323.00" arrivalLane="-35.0.00_0" arrivalPos="272.41" arrivalSpeed="11.25" duration="258.00" routeLength="2863.86" waitingTime="0.00" waitingCount="0" stopTime="0.00" timeLoss="16.17" rerouteNo="0" devices="vehroute_59 tripinfo_59" vType="DEFAULT_VEHTYPE" speedFactor="0.85" vaporized=""/>
    <tripinfo id="8" depart="8.00" departLane="39.0.00_0" departPos="5.10" departSpeed="0.00" departDelay="0.00" arrival="332.00" arrivalLane="29.0.00_0" arrivalPos="57.83" arrivalSpeed="11.25" duration="324.00" routeLength="3545.74" waitingTime="0.00" waitingCount="0" stopTime="0.00" timeLoss="32.18" rerouteNo="0" devices="vehroute_8 tripinfo_8" vType="DEFAULT_VEHTYPE" speedFactor="0.89" vaporized=""/>
    <tripinfo id="40" depart="40.00" departLane="-22.0.00_0" departPos="5.10" departSpeed="0.00" departDelay="0.00" arrival="335.00" arrivalLane="10.0.00_0" arrivalPos="36.28" arrivalSpeed="13.47" duration="295.00" routeLength="3624.88" waitingTime="3.00" waitingCount="1" stopTime="0.00" timeLoss="35.75" rerouteNo="0" devices="vehroute_40 tripinfo_40" vType="DEFAULT_VEHTYPE" speedFactor="1.02" vaporized=""/>
    <tripinfo id="45" depart="45.00" departLane="40.0.00_0" departPos="5.10" departSpeed="0.00" departDelay="0.00" arrival="348.00" arrivalLane="-1.0.00_0" arrivalPos="84.03" arrivalSpeed="14.60" duration="303.00" routeLength="3916.29" waitingTime="0.00" waitingCount="0" stopTime="0.00" timeLoss="44.29" rerouteNo="0" devices="vehroute_45 tripinfo_45" vType="DEFAULT_VEHTYPE" speedFactor="1.10" vaporized=""/>
    <tripinfo id="75" depart="75.00" departLane="25.0.00_0" departPos="5.10" departSpeed="0.00" departDelay="0.00" arrival="351.00" arrivalLane="35.0.00_0" arrivalPos="294.62" arrivalSpeed="12.61" duration="276.00" routeLength="3048.17" waitingTime="0.00" waitingCount="0" stopTime="0.00" timeLoss="40.39" rerouteNo="0" devices="vehroute_75 tripinfo_75" vType="DEFAULT_VEHTYPE" speedFactor="0.94" vaporized=""/>
    <tripinfo id="28" depart="28.00" departLane="-22.0.00_0" departPos="5.10" departSpeed="0.00" departDelay="0.00" arrival="352.00" arrivalLane="27.0.00_0" arrivalPos="35.44" arrivalSpeed="11.95" duration="324.00" routeLength="3533.66" waitingTime="0.00" waitingCount="0" stopTime="0.00" timeLoss="29.41" rerouteNo="0" devices="vehroute_28 tripinfo_28" vType="DEFAULT_VEHTYPE" speedFactor="0.87" vaporized=""/>
    <tripinfo id="98" depart="98.00" departLane="37.0.00_0" departPos="5.10" departSpeed="0.00" departDelay="0.00" arrival="352.00" arrivalLane="9.0.00_0" arrivalPos="55.82" arrivalSpeed="12.44" duration="254.00" routeLength="3063.41" waitingTime="0.00" waitingCount="0" stopTime="0.00" timeLoss="22.57" rerouteNo="0" devices="vehroute_98 tripinfo_98" vType="DEFAULT_VEHTYPE" speedFactor="0.97" vaporized=""/>
    <tripinfo id="60" depart="60.00" departLane="6.0.00_0" departPos="5.10" departSpeed="0.00" departDelay="0.00" arrival="358.00" arrivalLane="-35.0.00_1" arrivalPos="272.41" arrivalSpeed="15.61" duration="298.00" routeLength="4457.11" waitingTime="0.00" waitingCount="0" stopTime="0.00" timeLoss="22.41" rerouteNo="0" devices="vehroute_60 tripinfo_60" vType="DEFAULT_VEHTYPE" speedFactor="1.17" vaporized=""/>
    <tripinfo id="36" depart="36.00" departLane="45.0.00_0" departPos="5.10" departSpeed="0.00" departDelay="0.00" arrival="359.00" arrivalLane="-15.0.00_0" arrivalPos="40.71" arrivalSpeed="14.16" duration="323.00" routeLength="4757.07" waitingTime="0.00" waitingCount="0" stopTime="0.00" timeLoss="24.86" rerouteNo="0" devices="vehroute_36 tripinfo_36" vType="DEFAULT_VEHTYPE" speedFactor="1.15" vaporized=""/>
    <tripinfo id="13" depart="13.00" departLane="45.0.00_0" departPos="5.10" departSpeed="0.00" departDelay="0.00" arrival="374.00" arrivalLane="3.0.00_0" arrivalPos="37.36" arrivalSpeed="14.09" duration="361.00" routeLength="4725.80" waitingTime="0.00" waitingCount="0" stopTime="0.00" timeLoss="27.50" rerouteNo="0" devices="vehroute_13 tripinfo_13" vType="DEFAULT_VEHTYPE" speedFactor="1.03" vaporized=""/>
    <tripinfo id="22" depart="22.00" departLane="46.0.00_0" departPos="5.10" departSpeed="0.00" departDelay="0.00" arrival="376.00" arrivalLane="-48.0.00_0" arrivalPos="81.46" arrivalSpeed="13.10" duration="354.00" routeLength="4604.15" waitingTime="0.00" waitingCount="0" stopTime="0.00" timeLoss="26.82" rerouteNo="0" devices="vehroute_22 tripinfo_22" vType="DEFAULT_VEHTYPE" speedFactor="1.02" vaporized=""/>
    <tripinfo id="78" depart="81.00" departLane="38.0.00_0" departPos="5.10" departSpeed="0.00" departDelay="3.00" arrival="376.00" arrivalLane="-52.0.00_0" arrivalPos="107.01" arrivalSpeed="11.77" duration="295.00" routeLength="3392.49" waitingTime="0.00" waitingCount="0" stopTime="0.00" timeLoss="24.66" rerouteNo="0" devices="vehroute_78 tripinfo_78" vType="DEFAULT_VEHTYPE" speedFactor="0.91" vaporized=""/>
    <tripinfo id="66" depart="66.00" departLane="-25.0.00_0" departPos="5.10" departSpeed="0.00" departDelay="0.00" arrival="404.00" arrivalLane="-23.0.00_0" arrivalPos="460.56" arrivalSpeed="12.61" duration="338.00" routeLength="3957.49" waitingTime="0.00" waitingCount="0" stopTime="0.00" timeLoss="50.13" rerouteNo="0" devices="vehroute_66 tripinfo_66" vType="DEFAULT_VEHTYPE" speedFactor="1.00" vaporized=""/>