<?xml version="1.0" encoding="UTF-8"?>

<!-- generated on Thu Sep  5 16:52:58 2019 by Eclipse SUMO Version 1.2.0
<configuration xmlns:xsi="http://www.w3.org/2001/XMLSchema-instance" xsi:noNamespaceSchemaLocation="http://sumo.dlr.de/xsd/sumoConfiguration.xsd">

    <input>
        <net-file value="simulations/Town04/Town04.net.xml"/>
        <route-files value="simulations/Town04/Town04.rou.xml"/>
        <additional-files value="simulations/Town04/Town04.poly.xml"/>
    </input>

    <output>
        <netstate-dump value="simulations/Town04/Town04.sumo.tr"/>
        <tripinfo-output value="simulations/Town04/Town04.tripinfo.xml"/>
        <vehroute-output value="simulations/Town04/Town04.vehroutes.xml"/>
    </output>

    <time>
        <begin value="0"/>
        <end value="1000"/>
    </time>

    <traci_server>
        <remote-port value="51119"/>
    </traci_server>

</configuration>
-->

<routes xmlns:xsi="http://www.w3.org/2001/XMLSchema-instance" xsi:noNamespaceSchemaLocation="http://sumo.dlr.de/xsd/routes_file.xsd">
    <vehicle id="7" depart="7.00" arrival="55.00">
        <route edges="30.0.00 -27.0.00 16.0.00 15.0.00 -43.0.00 -35.0.00"/>
    </vehicle>

    <vehicle id="23" depart="23.00" arrival="60.00">
        <route edges="-35.0.00 14.0.00 -25.0.00"/>
    </vehicle>

    <vehicle id="26" depart="26.00" arrival="61.00">
        <route edges="-27.0.00 16.0.00 -51.0.00"/>
    </vehicle>

    <vehicle id="4" depart="4.00" arrival="63.00">
        <route edges="51.0.00 -0.0.00 30.0.00 29.0.00 -11.0.00 3.0.00"/>
    </vehicle>

    <vehicle id="51" depart="51.00" arrival="78.00">
        <route edges="24.0.00 32.0.00 20.0.00 4.0.00 3.0.00 2.0.00 1.0.00"/>
    </vehicle>

    <vehicle id="37" depart="37.00" arrival="80.00">
        <route edges="-3.0.00 11.0.00 10.0.00 17.0.00 -52.0.00 -9.0.00"/>
    </vehicle>

    <vehicle id="55" depart="55.00" arrival="92.00">
        <route edges="-0.0.00 -1.0.00 -2.0.00 -3.0.00 -12.0.00 -13.0.00 -25.0.00"/>
    </vehicle>

    <vehicle id="61" depart="61.00" arrival="100.00">
        <route edges="11.0.00 10.0.00 9.0.00 8.0.00 51.0.00"/>
    </vehicle>

    <vehicle id="67" depart="67.00" arrival="103.00">
        <route edges="29.0.00 -11.0.00 -4.0.00 -5.0.00"/>
    </vehicle>

    <vehicle id="10" depart="10.00" arrival="113.00">
        <route edges="-45.0.00 -46.0.00 -47.0.00 -48.0.00"/>
    </vehicle>

    <vehicle id="25" depart="25.00" arrival="116.00">
        <route edges="-46.0.00 -47.0.00 -48.0.00 -49.0.00 -50.0.00 -42.0.00 -15.0.00 -51.0.00"/>
    </vehicle>

    <vehicle id="57" depart="57.00" arrival="117.00">
        <route edges="-51.0.00 -8.0.00 -9.0.00 -18.0.00 -19.0.00 -20.0.00 -32.0.00"/>
    </vehicle>

    <vehicle id="69" depart="69.00" arrival="119.00">
        <route edges="45.0.00 6.0.00"/>
    </vehicle>

    <vehicle id="56" depart="56.00" arrival="123.00">
        <route edges="-9.0.00 -18.0.00 -19.0.00 -5.0.00 -37.0.00 -38.0.00"/>
    </vehicle>

    <vehicle id="91" depart="91.00" arrival="123.00">
        <route edges="28.0.00 18.0.00 17.0.00 27.0.00 -30.0.00"/>
    </vehicle>

    <vehicle id="92" depart="92.00" arrival="124.00">
        <route edges="24.0.00 32.0.00 20.0.00 -5.0.00"/>
    </vehicle>

    <vehicle id="81" depart="82.00" arrival="139.00">
        <route edges="-46.0.00 -47.0.00 -48.0.00 -7.0.00 -8.0.00 -9.0.00 -10.0.00"/>
    </vehicle>

    <vehicle id="90" depart="90.00" arrival="141.00">
        <route edges="5.0.00 4.0.00 3.0.00 2.0.00 1.0.00 0.0.00 -51.0.00"/>
    </vehicle>

    <vehicle id="18" depart="18.00" arrival="148.00">
        <route edges="-35.0.00 -36.0.00 -37.0.00 -38.0.00 -39.0.00 -40.0.00 -41.0.00"/>
    </vehicle>

    <vehicle id="16" depart="16.00" arrival="150.00">
        <route edges="-45.0.00 -22.0.00 37.0.00 36.0.00 35.0.00"/>
    </vehicle>

    <vehicle id="38" depart="38.00" arrival="150.00">
        <route edges="1.0.00 30.0.00 29.0.00 -11.0.00 -12.0.00 -13.0.00 -14.0.00 -36.0.00 -37.0.00 -38.0.00 -39.0.00 -40.0.00 -41.0.00"/>
    </vehicle>

    <vehicle id="32" depart="32.00" arrival="151.00">
        <route edges="-40.0.00 -41.0.00 -6.0.00 -45.0.00 -46.0.00 -47.0.00 -48.0.00"/>
    </vehicle>

    <vehicle id="35" depart="35.00" arrival="152.00">
        <route edges="-45.0.00 -46.0.00 -47.0.00 -48.0.00 -7.0.00 -8.0.00 -9.0.00 -10.0.00 -11.0.00 3.0.00 2.0.00 25.0.00"/>
    </vehicle>

    <vehicle id="95" depart="95.00" arrival="152.00">
        <route edges="5.0.00 4.0.00 -12.0.00 -13.0.00 -14.0.00 -36.0.00 -37.0.00 -38.0.00"/>
    </vehicle>

    <vehicle id="29" depart="29.00" arrival="153.00">
        <route edges="34.0.00 31.0.00 -47.0.00 -48.0.00 -49.0.00 -50.0.00 -42.0.00 -43.0.00 -35.0.00"/>
    </vehicle>

    <vehicle id="14" depart="14.00" arrival="159.00">
        <route edges="-41.0.00 -6.0.00 -45.0.00 -46.0.00 -47.0.00 -48.0.00 -7.0.00 -8.0.00 -9.0.00 -10.0.00 -29.0.00 -30.0.00 0.0.00"/>
    </vehicle>

    <vehicle id="73" depart="73.00" arrival="160.00">
        <route edges="15.0.00 -43.0.00 -35.0.00 14.0.00 13.0.00 12.0.00 11.0.00 10.0.00 9.0.00 8.0.00 7.0.00 -49.0.00 -50.0.00"/>
    </vehicle>

    <vehicle id="12" depart="12.00" arrival="162.00">
        <route edges="-23.0.00 -41.0.00 -6.0.00 -45.0.00 -22.0.00"/>
    </vehicle>

    <vehicle id="74" depart="74.00" arrival="165.00">
        <route edges="34.0.00 -39.0.00 -40.0.00 -41.0.00"/>
    </vehicle>

    <vehicle id="17" depart="17.00" arrival="167.00">
        <route edges="-22.0.00 37.0.00 36.0.00 35.0.00 43.0.00 42.0.00 50.0.00 -23.0.00"/>
    </vehicle>

    <vehicle id="15" depart="15.00" arrival="173.00">
        <route edges="-40.0.00 -41.0.00 -6.0.00 -45.0.00 -46.0.00 -47.0.00 -48.0.00 -7.0.00 -8.0.00 -9.0.00 -10.0.00 -11.0.00 3.0.00 2.0.00 25.0.00"/>
    </vehicle>

    <vehicle id="71" depart="76.00" arrival="173.00">
        <route edges="-45.0.00 -22.0.00"/>
    </vehicle>

    <vehicle id="33" depart="33.00" arrival="175.00">
        <route edges="-47.0.00 -48.0.00 -7.0.00 -8.0.00 -9.0.00 -18.0.00 -19.0.00 -5.0.00 -37.0.00 -38.0.00 -39.0.00 -40.0.00"/>
    </vehicle>

    <vehicle id="53" depart="53.00" arrival="176.00">
        <route edges="47.0.00 46.0.00 45.0.00 6.0.00 41.0.00 40.0.00 39.0.00"/>
    </vehicle>

    <vehicle id="64" depart="64.00" arrival="179.00">
        <route edges="31.0.00 -47.0.00 -48.0.00 -49.0.00 -50.0.00 -42.0.00 -43.0.00 -35.0.00"/>
    </vehicle>

    <vehicle id="46" depart="46.00" arrival="191.00">
        <route edges="-38.0.00 -39.0.00 -40.0.00 -41.0.00 -6.0.00 -45.0.00"/>
    </vehicle>

    <vehicle id="49" depart="49.00" arrival="198.00">
        <route edges="34.0.00 31.0.00 -47.0.00 -48.0.00 -7.0.00 -8.0.00 -9.0.00 -10.0.00 -11.0.00 -12.0.00 -13.0.00 24.0.00 32.0.00"/>
    </vehicle>

    <vehicle id="93" depart="93.00" arrival="206.00">
        <route edges="-50.0.00 -42.0.00 -43.0.00 -35.0.00 -36.0.00 -37.0.00 -38.0.00 -39.0.00 -40.0.00"/>
    </vehicle>

    <vehicle id="5" depart="5.00" arrival="210.00">
        <route edges="50.0.00 -23.0.00 -41.0.00 -6.0.00 -45.0.00 -46.0.00 -47.0.00 -48.0.00 -7.0.00 -8.0.00 -9.0.00 -10.0.00 -11.0.00 3.0.00 2.0.00 25.0.00"/>
    </vehicle>

    <vehicle id="1" depart="1.00" arrival="220.00">
        <route edges="9.0.00 52.0.00 -17.0.00 -18.0.00 -19.0.00 -5.0.00 -37.0.00 -38.0.00 -39.0.00 -40.0.00 -41.0.00 -6.0.00 -45.0.00 -46.0.00"/>
    </vehicle>

    <vehicle id="43" depart="43.00" arrival="226.00">
        <route edges="-51.0.00 -8.0.00 -9.0.00 -18.0.00 -19.0.00 -5.0.00 -37.0.00 -38.0.00 -39.0.00 -40.0.00 -41.0.00 -6.0.00 -45.0.00"/>
    </vehicle>

    <vehicle id="3" depart="3.00" arrival="227.00">
        <route edges="-5.0.00 -37.0.00 -38.0.00 -39.0.00 -40.0.00 -41.0.00 -6.0.00 -45.0.00 -46.0.00 -47.0.00 -48.0.00 -7.0.00 -8.0.00 -9.0.00 -10.0.00 -11.0.00 -12.0.00 -13.0.00 -25.0.00"/>
    </vehicle>

    <vehicle id="21" depart="21.00" arrival="236.00">
        <route edges="35.0.00 43.0.00 42.0.00 50.0.00 -23.0.00 -41.0.00 -6.0.00 -45.0.00 -46.0.00 -47.0.00 -48.0.00 -7.0.00 51.0.00"/>
    </vehicle>

    <vehicle id="79" depart="80.00" arrival="255.00">
        <route edges="-40.0.00 -41.0.00 -6.0.00 -45.0.00 -46.0.00 -47.0.00 -48.0.00 -7.0.00 -8.0.00 52.0.00 -17.0.00 9.0.00 8.0.00 7.0.00"/>
    </vehicle>

    <vehicle id="54" depart="54.00" arrival="257.00">
        <route edges="38.0.00 37.0.00 36.0.00 35.0.00 43.0.00 42.0.00 50.0.00 -23.0.00 -41.0.00 -6.0.00 -45.0.00"/>
    </vehicle>

    <vehicle id="27" depart="27.00" arrival="260.00">
        <route edges="-51.0.00 -8.0.00 -9.0.00 -18.0.00 -19.0.00 -5.0.00 -37.0.00 -38.0.00 -39.0.00 -40.0.00 -41.0.00 -6.0.00 -45.0.00"/>
    </vehicle>

    <vehicle id="70" depart="70.00" arrival="270.00">
        <route edges="-7.0.00 -8.0.00 -9.0.00 -18.0.00 -19.0.00 -5.0.00 -37.0.00 -38.0.00 -39.0.00 -40.0.00 -41.0.00 -6.0.00 -45.0.00 -46.0.00"/>
    </vehicle>

    <vehicle id="62" depart="66.00" arrival="271.00">
        <route edges="-23.0.00 -41.0.00 -6.0.00 -45.0.00 -46.0.00 -47.0.00 -48.0.00 -7.0.00 -8.0.00 -9.0.00 -10.0.00 -11.0.00 -12.0.00 -13.0.00 -14.0.00 -36.0.00"/>
    </vehicle>

    <vehicle id="52" depart="52.00" arrival="276.00">
        <route edges="33.0.00 47.0.00 46.0.00 45.0.00 6.0.00 41.0.00 40.0.00 39.0.00 38.0.00 37.0.00 36.0.00 35.0.00 43.0.00 42.0.00 50.0.00"/>
    </vehicle>

    <vehicle id="6" depart="6.00" arrival="277.00">
        <route edges="-37.0.00 -38.0.00 -39.0.00 -40.0.00 -41.0.00 -6.0.00 -45.0.00 -46.0.00 -47.0.00 -48.0.00 -49.0.00 -50.0.00 -42.0.00 -15.0.00 -51.0.00"/>
    </vehicle>

    <vehicle id="41" depart="41.00" arrival="277.00">
        <route edges="50.0.00 -23.0.00 -41.0.00 -6.0.00 -45.0.00 -46.0.00 -47.0.00 -48.0.00 -7.0.00 -8.0.00 -9.0.00 -10.0.00 -11.0.00 -12.0.00 -13.0.00 -14.0.00 -36.0.00 5.0.00"/>
    </vehicle>

    <vehicle id="84" depart="84.00" arrival="285.00">
        <route edges="39.0.00 38.0.00 37.0.00 36.0.00 35.0.00 43.0.00 42.0.00 50.0.00 -23.0.00 -41.0.00 -6.0.00 -45.0.00"/>
    </vehicle>

    <vehicle id="0" depart="0.00" arrival="286.00">
        <route edges="38.0.00 37.0.00 36.0.00 35.0.00 43.0.00 42.0.00 50.0.00 -23.0.00 -41.0.00 -6.0.00 -45.0.00 -46.0.00 -47.0.00 -48.0.00 -7.0.00 -8.0.00 -9.0.00 17.0.00 -52.0.00"/>
    </vehicle>

    <vehicle id="76" depart="76.00" arrival="290.00">
        <route edges="44.0.00 39.0.00 38.0.00 37.0.00 36.0.00 35.0.00 43.0.00 42.0.00 50.0.00 -23.0.00 -41.0.00 -6.0.00"/>
    </vehicle>

    <vehicle id="80" depart="80.00" arrival="298.00">
        <route edges="50.0.00 -23.0.00 -41.0.00 -6.0.00 -45.0.00 -46.0.00 -47.0.00 -48.0.00 -7.0.00 -8.0.00 -9.0.00 -10.0.00 28.0.00 18.0.00"/>
    </vehicle>

    <vehicle id="20" depart="20.00" arrival="302.00">
        <route edges="-25.0.00 -2.0.00 -3.0.00 -4.0.00 -5.0.00 -37.0.00 -38.0.00 -39.0.00 -40.0.00 -41.0.00 -6.0.00 -45.0.00 -22.0.00"/>
    </vehicle>

    <vehicle id="77" depart="77.00" arrival="306.00">
        <route edges="-23.0.00 -41.0.00 -6.0.00 -45.0.00 -22.0.00"/>
    </vehicle>

    <vehicle id="59" depart="65.00" arrival="323.00">
        <route edges="-38.0.00 -39.0.00 -40.0.00 -41.0.00 -6.0.00 -45.0.00 -46.0.00 -47.0.00 -48.0.00 -49.0.00 -50.0.00 -42.0.00 -43.0.00 -35.0.00"/>
    </vehicle>

    <vehicle id="8" depart="8.00" arrival="332.00">
        <route edges="39.0.00 38.0.00 37.0.00 36.0.00 35.0.00 43.0.00 42.0.00 50.0.00 -23.0.00 -41.0.00 -6.0.00 -45.0.00 -46.0.00 -47.0.00 -48.0.00 -7.0.00 -8.0.00 52.0.00 27.0.00 29.0.00"/>
    </vehicle>

    <vehicle id="40" depart="40.00" arrival="335.00">
        <route edges="-22.0.00 37.0.00 36.0.00 35.0.00 43.0.00 42.0.00 50.0.00 -23.0.00 -41.0.00 -6.0.00 -45.0.00 -46.0.00 -47.0.00 -48.0.00 -7.0.00 -8.0.00 -9.0.00 -18.0.00 -28.0.00 10.0.00"/>
    </vehicle>

    <vehicle id="45" depart="45.00" arrival="348.00">
        <route edges="40.0.00 39.0.00 38.0.00 37.0.00 36.0.00 35.0.00 43.0.00 42.0.00 50.0.00 -23.0.00 -41.0.00 -6.0.00 -45.0.00 -46.0.00 -47.0.00 -48.0.00 -7.0.00 51.0.00 -0.0.00 -1.0.00"/>
    </vehicle>

    <vehicle id="75" depart="75.00" arrival="351.00">
        <route edges="25.0.00 -14.0.00 -36.0.00 -37.0.00 -38.0.00 -39.0.00 -40.0.00 -41.0.00 -6.0.00 -45.0.00 -22.0.00 37.0.00 36.0.00 35.0.00"/>
    </vehicle>

    <vehicle id="28" depart="28.00" arrival="352.00">
        <route edges="-22.0.00 37.0.00 36.0.00 35.0.00 43.0.00 42.0.00 50.0.00 -23.0.00 -41.0.00 -6.0.00 -45.0.00 -46.0.00 -47.0.00 -48.0.00 -7.0.00 -8.0.00 52.0.00 27.0.00"/>
    </vehicle>

    <vehicle id="98" depart="98.00" arrival="352.00">
        <route edges="37.0.00 36.0.00 35.0.00 43.0.00 42.0.00 50.0.00 -23.0.00 -41.0.00 -6.0.00 -45.0.00 -46.0.00 -47.0.00 -48.0.00 -7.0.00 -8.0.00 52.0.00 -17.0.00 9.0.00"/>
    </vehicle>

    <vehicle id="60" depart="60.00" arrival="358.00">
        <route edges="6.0.00 41.0.00 40.0.00 39.0.00 38.0.00 37.0.00 36.0.00 35.0.00 43.0.00 42.0.00 50.0.00 -23.0.00 -41.0.00 -6.0.00 -45.0.00 -46.0.00 -47.0.00 -48.0.00 -49.0.00 -50.0.00 -42.0.00 -43.0.00 -35.0.00"/>
    </vehicle>

    <vehicle id="36" depart="36.00" arrival="359.00">
        <route edges="45.0.00 6.0.00 41.0.00 40.0.00 39.0.00 38.0.00 37.0.00 36.0.00 35.0.00 43.0.00 42.0.00 50.0.00 -23.0.00 -41.0.00 -6.0.00 -45.0.00 -46.0.00 -47.0.00 -48.0.00 -49.0.00 -50.0.00 -42.0.00 -15.0.00"/>
    </vehicle>

    <vehicle id="13" depart="13.00" arrival="374.00">
        <route edges="45.0.00 6.0.00 41.0.00 40.0.00 39.0.00 38.0.00 37.0.00 36.0.00 35.0.00 43.0.00 42.0.00 50.0.00 -23.0.00 -41.0.00 -6.0.00 -45.0.00 -46.0.00 -47.0.00 -48.0.00 -7.0.00 -8.0.00 -9.0.00 -10.0.00 -11.0.00 3.0.00"/>
    </vehicle>

    <vehicle id="22" depart="22.00" arrival="376.00">
        <route edges="46.0.00 45.0.00 6.0.00 41.0.00 40.0.00 39.0.00 38.0.00 37.0.00 36.0.00 35.0.00 43.0.00 42.0.00 50.0.00 -23.0.00 -41.0.00 -6.0.00 -45.0.00 -46.0.00 -47.0.00 -48.0.00"/>
    </vehicle>

    <vehicle id="78" depart="81.00" arrival="376.00">
        <route edges="38.0.00 37.0.00 36.0.00 35.0.00 43.0.00 42.0.00 50.0.00 -23.0.00 -41.0.00 -6.0.00 -45.0.00 -46.0.00 -47.0.00 -48.0.00 -7.0.00 -8.0.00 -9.0.00 17.0.00 -52.0.00"/>
    </vehicle>

    <vehicle id="66" depart="66.00" arrival="404.00">
        <route edges="-25.0.00 -2.0.00 -3.0.00 -4.0.00 -5.0.00 -37.0.00 -38.0.00 -39.0.00 -40.0.00 -41.0.00 -6.0.00 -45.0.00 -22.0.00 37.0.00 36.0.00 35.0.00 43.0.00 42.0.00 50.0.00 -23.0.00"/>
    </vehicle>

    <vehicle id="50" depart="50.00" arrival="410.00">
        <route edges="-22.0.00 37.0.00 36.0.00 35.0.00 43.0.00 42.0.00 50.0.00 -23.0.00 -41.0.00 -6.0.00 -45.0.00 -46.0.00 -47.0.00 -48.0.00 -7.0.00 -8.0.00 -9.0.00 -18.0.00 -19.0.00 -5.0.00 -37.0.00 -38.0.00 -39.0.00 -40.0.00"/>
    </vehicle>

    <vehicle id="9" depart="9.00" arrival="416.00">
        <route edges="-22.0.00 37.0.00 36.0.00 35.0.00 43.0.00 42.0.00 50.0.00 -23.0.00 -41.0.00 -6.0.00 -45.0.00 -46.0.00 -47.0.00 -48.0.00 -7.0.00 -8.0.00 -9.0.00 -18.0.00 -19.0.00 -5.0.00 -37.0.00 -38.0.00 -39.0.00 -40.0.00"/>
    </vehicle>

    <vehicle id="72" depart="72.00" arrival="423.00">
        <route edges="45.0.00 6.0.00 41.0.00 40.0.00 39.0.00 38.0.00 37.0.00 36.0.00 35.0.00 43.0.00 42.0.00 50.0.00 -23.0.00 -41.0.00 -6.0.00 -45.0.00 -46.0.00 -47.0.00 -48.0.00 -7.0.00 -8.0.00 -9.0.00 17.0.00 -52.0.00"/>
    </vehicle>

    <vehicle id="87" depart="87.00" arrival="426.00">
        <route edges="-6.0.00 -45.0.00 -22.0.00 37.0.00 36.0.00 35.0.00 43.0.00 42.0.00 50.0.00 -23.0.00 40.0.00 39.0.00"/>
    </vehicle>

    <vehicle id="31" depart="31.00" arrival="427.00">
        <route edges="45.0.00 6.0.00 41.0.00 40.0.00 39.0.00 38.0.00 37.0.00 36.0.00 35.0.00 43.0.00 42.0.00 50.0.00 -23.0.00 -41.0.00 -6.0.00 -45.0.00 -46.0.00 -47.0.00 -48.0.00 -7.0.00 51.0.00 -0.0.00 -1.0.00"/>
    </vehicle>

    <vehicle id="85" depart="85.00" arrival="429.00">
        <route edges="45.0.00 6.0.00 41.0.00 40.0.00 39.0.00 38.0.00 37.0.00 36.0.00 35.0.00 43.0.00 42.0.00 50.0.00 -23.0.00 -41.0.00 -6.0.00 -45.0.00 -46.0.00 -47.0.00"/>
    </vehicle>

    <vehicle id="68" depart="68.00" arrival="433.00">
        <route edges="-38.0.00 -39.0.00 -40.0.00 -41.0.00 -6.0.00 -45.0.00 -22.0.00 37.0.00 36.0.00 35.0.00 43.0.00 42.0.00 50.0.00 -23.0.00 40.0.00 39.0.00 38.0.00"/>
    </vehicle>

    <vehicle id="manual_vehicle_0" depart="0.00" arrival="434.00">
        <route edges=":6.45_4 -45.0.00 -22.0.00"/>
    </vehicle>

</routes>
