<?xml version="1.0" encoding="UTF-8"?>

<!-- generated on Wed Aug 14 14:40:06 2019 by Eclipse SUMO Version 1.2.0
<configuration xmlns:xsi="http://www.w3.org/2001/XMLSchema-instance" xsi:noNamespaceSchemaLocation="http://sumo.dlr.de/xsd/sumoConfiguration.xsd">

    <input>
        <net-file value="simulations/Town03/Town03.net.xml"/>
        <route-files value="simulations/Town03/Town03.rou.xml"/>
        <additional-files value="simulations/Town03/Town03.poly.xml"/>
    </input>

    <output>
        <netstate-dump value="simulations/Town03/Town03.sumo.tr"/>
        <tripinfo-output value="simulations/Town03/Town03-output-tripinfos.xml"/>
        <vehroute-output value="simulations/Town03/Town03-output-vehroutes.xml"/>
    </output>

    <time>
        <begin value="0"/>
        <end value="1000"/>
    </time>

    <traci_server>
        <remote-port value="59559"/>
    </traci_server>

</configuration>
-->

<routes xmlns:xsi="http://www.w3.org/2001/XMLSchema-instance" xsi:noNamespaceSchemaLocation="http://sumo.dlr.de/xsd/routes_file.xsd">
    <vehicle id="manual_vehicle_0" depart="0.00" arrival="21.00">
        <route edges="-7.0.00 -8.0.00 35.0.00 15.0.00 -29.0.00"/>
    </vehicle>

    <vehicle id="4" depart="4.00" arrival="22.00">
        <route edges="-3.0.00 -64.0.00"/>
    </vehicle>

    <vehicle id="2" depart="2.00" arrival="25.00">
        <route edges="-70.0.00 -53.0.00 -54.0.00 -84.0.00 -85.0.00 -62.0.00"/>
    </vehicle>

    <vehicle id="10" depart="10.00" arrival="31.00">
        <route edges="-7.0.00 -8.0.00 35.0.00 15.0.00 -29.0.00"/>
    </vehicle>

    <vehicle id="15" depart="15.00" arrival="51.00">
        <route edges="23.0.00 22.0.00 21.0.00 64.0.00 63.0.00 -86.0.00 -13.0.00 -14.0.00"/>
    </vehicle>

    <vehicle id="23" depart="26.00" arrival="54.00">
        <route edges="71.0.00"/>
    </vehicle>

    <vehicle id="29" depart="29.00" arrival="57.00">
        <route edges="-71.0.00"/>
    </vehicle>

    <vehicle id="33" depart="33.00" arrival="60.00">
        <route edges="2.0.00 1.0.00 -46.0.00 -18.0.00"/>
    </vehicle>

    <vehicle id="0" depart="0.00" arrival="62.00">
        <route edges="3.0.00 -20.0.00 -21.0.00 -22.0.00 -23.0.00 -24.0.00 -32.0.00 -33.0.00 -34.0.00 -72.0.00"/>
    </vehicle>

    <vehicle id="12" depart="12.00" arrival="63.00">
        <route edges="-48.0.00 -8.0.00 35.0.00 15.0.00 -29.0.00 -30.0.00 1.0.00 -46.0.00 -47.0.00"/>
    </vehicle>

    <vehicle id="40" depart="40.00" arrival="65.00">
        <route edges="-29.0.00 -30.0.00 -2.0.00"/>
    </vehicle>

    <vehicle id="27" depart="27.00" arrival="74.00">
        <route edges="-20.0.00 -21.0.00 -22.0.00 -23.0.00 73.0.00 72.0.00"/>
    </vehicle>

    <vehicle id="22" depart="22.00" arrival="77.00">
        <route edges="2.0.00 1.0.00 -46.0.00 17.0.00 80.0.00 79.2.76 79.0.00 78.0.00 -69.0.00"/>
    </vehicle>

    <vehicle id="6" depart="6.00" arrival="78.00">
        <route edges="-2.0.00 -3.0.00 -4.0.00 -24.0.00 -83.0.00"/>
    </vehicle>

    <vehicle id="13" depart="13.00" arrival="80.00">
        <route edges="-8.0.00 35.0.00 15.0.00 -29.0.00 -30.0.00 1.0.00 -46.0.00 17.0.00 80.0.00 79.2.76 79.0.00 78.0.00 -69.0.00"/>
    </vehicle>

    <vehicle id="34" depart="34.00" arrival="82.00">
        <route edges="-48.0.00 -8.0.00 35.0.00 15.0.00 -29.0.00 -19.0.00 -20.0.00"/>
    </vehicle>

    <vehicle id="41" depart="41.00" arrival="82.00">
        <route edges="-83.0.00 -54.0.00 -84.0.00"/>
    </vehicle>

    <vehicle id="1" depart="1.00" arrival="92.00">
        <route edges="20.0.00 19.0.00 18.0.00 17.0.00 80.0.00 79.2.76 79.0.00 78.0.00 -69.0.00 -5.0.00 -6.0.00 82.0.00 81.0.00"/>
    </vehicle>

    <vehicle id="7" depart="7.00" arrival="93.00">
        <route edges="-83.0.00 -54.0.00 -84.0.00 -85.0.00 -62.0.00 -50.0.00 -51.0.00 54.0.00 83.0.00 24.0.00 23.0.00"/>
    </vehicle>

    <vehicle id="11" depart="11.00" arrival="94.00">
        <route edges="83.0.00 24.0.00 4.0.00 3.0.00 2.0.00 1.0.00"/>
    </vehicle>

    <vehicle id="3" depart="3.00" arrival="109.00">
        <route edges="83.0.00 24.0.00 4.0.00 3.0.00 2.0.00 1.0.00 0.0.00 -78.0.00 -79.0.00 -79.2.76 -80.0.00 -17.0.00"/>
    </vehicle>

    <vehicle id="56" depart="56.00" arrival="109.00">
        <route edges="-18.0.00 -19.0.00 -20.0.00 -21.0.00 -22.0.00 -23.0.00"/>
    </vehicle>

    <vehicle id="28" depart="28.00" arrival="116.00">
        <route edges="-20.0.00 64.0.00 -49.0.00 21.0.00 20.0.00"/>
    </vehicle>

    <vehicle id="85" depart="85.00" arrival="118.00">
        <route edges="46.0.00 0.0.00 -78.0.00 -79.0.00 -79.2.76 -80.0.00 -81.0.00 -61.0.00"/>
    </vehicle>

    <vehicle id="46" depart="46.00" arrival="119.00">
        <route edges="22.0.00 21.0.00 64.0.00 3.0.00 -20.0.00"/>
    </vehicle>

    <vehicle id="87" depart="87.00" arrival="120.00">
        <route edges="-46.0.00 -18.0.00 -30.0.00 -2.0.00"/>
    </vehicle>

    <vehicle id="63" depart="63.00" arrival="125.00">
        <route edges="-21.0.00 -22.0.00 -23.0.00 -24.0.00 -83.0.00 -54.0.00"/>
    </vehicle>

    <vehicle id="32" depart="32.00" arrival="127.00">
        <route edges="-83.0.00 -54.0.00 -84.0.00 -85.0.00 -62.0.00 -50.0.00 -51.0.00 54.0.00 83.0.00 24.0.00 4.0.00 3.0.00"/>
    </vehicle>

    <vehicle id="25" depart="25.00" arrival="129.00">
        <route edges="-74.0.00 -10.0.00 -11.0.00 -36.0.00 -37.0.00 -38.0.00 -26.0.00 -63.0.00 -64.0.00 20.0.00 2.0.00 1.0.00"/>
    </vehicle>

    <vehicle id="17" depart="17.00" arrival="132.00">
        <route edges="-2.0.00 -3.0.00 -64.0.00 20.0.00 2.0.00 1.0.00 -46.0.00 -18.0.00"/>
    </vehicle>

    <vehicle id="81" depart="81.00" arrival="132.00">
        <route edges="71.0.00 70.0.00 69.0.00"/>
    </vehicle>

    <vehicle id="66" depart="66.00" arrival="133.00">
        <route edges="17.0.00 80.0.00 79.2.76 79.0.00 78.0.00 -69.0.00 -70.0.00 -53.0.00 83.0.00"/>
    </vehicle>

    <vehicle id="52" depart="52.00" arrival="136.00">
        <route edges="4.0.00 -64.0.00 -21.0.00 -22.0.00 -23.0.00 73.0.00"/>
    </vehicle>

    <vehicle id="45" depart="45.00" arrival="138.00">
        <route edges="83.0.00 24.0.00 4.0.00 3.0.00 19.0.00 18.0.00 17.0.00 -81.0.00 -82.0.00"/>
    </vehicle>

    <vehicle id="83" depart="83.00" arrival="141.00">
        <route edges="-3.0.00 -4.0.00 -24.0.00 31.0.00"/>
    </vehicle>

    <vehicle id="5" depart="5.00" arrival="144.00">
        <route edges="29.0.00 -25.0.00 -26.0.00 -63.0.00 -64.0.00 20.0.00 19.0.00 18.0.00 17.0.00 80.0.00 79.2.76 79.0.00 78.0.00 -69.0.00"/>
    </vehicle>

    <vehicle id="43" depart="43.00" arrival="146.00">
        <route edges="4.0.00 -64.0.00 -21.0.00 -22.0.00 -23.0.00 73.0.00 72.0.00 71.0.00 70.0.00 69.0.00"/>
    </vehicle>

    <vehicle id="30" depart="30.00" arrival="148.00">
        <route edges="54.0.00 83.0.00 24.0.00 4.0.00 3.0.00 19.0.00 18.0.00 17.0.00 80.0.00 79.2.76 79.0.00 78.0.00 -69.0.00"/>
    </vehicle>

    <vehicle id="84" depart="84.00" arrival="148.00">
        <route edges="-20.0.00 -21.0.00 -22.0.00 -23.0.00 73.0.00 72.0.00 71.0.00"/>
    </vehicle>

    <vehicle id="77" depart="77.00" arrival="152.00">
        <route edges="83.0.00 24.0.00 4.0.00"/>
    </vehicle>

    <vehicle id="61" depart="61.00" arrival="154.00">
        <route edges="-47.0.00 -48.0.00 -8.0.00 35.0.00 15.0.00 -29.0.00 -19.0.00 -3.0.00"/>
    </vehicle>

    <vehicle id="19" depart="22.00" arrival="161.00">
        <route edges="-26.0.00 -63.0.00 -64.0.00 20.0.00 2.0.00 1.0.00 -46.0.00 -18.0.00 -19.0.00"/>
    </vehicle>

    <vehicle id="39" depart="39.00" arrival="161.00">
        <route edges="7.0.00 6.0.00 5.0.00 -70.0.00 -53.0.00 83.0.00 24.0.00 4.0.00 3.0.00 19.0.00 29.0.00"/>
    </vehicle>

    <vehicle id="18" depart="18.00" arrival="168.00">
        <route edges="73.0.00 72.0.00 71.0.00 70.0.00 69.0.00 -0.0.00 -1.0.00 -2.0.00 -3.0.00 -4.0.00 -24.0.00 -83.0.00"/>
    </vehicle>

    <vehicle id="55" depart="55.00" arrival="169.00">
        <route edges="-73.0.00 23.0.00 22.0.00 21.0.00 20.0.00 2.0.00"/>
    </vehicle>

    <vehicle id="80" depart="80.00" arrival="175.00">
        <route edges="-53.0.00 83.0.00 24.0.00 4.0.00 3.0.00 2.0.00 1.0.00 0.0.00"/>
    </vehicle>

    <vehicle id="24" depart="24.00" arrival="177.00">
        <route edges="-71.0.00 34.0.00 33.0.00 32.0.00 31.0.00 -74.0.00 -10.0.00 -11.0.00 -36.0.00 -37.0.00 -38.0.00 -26.0.00 -63.0.00 -4.0.00 -24.0.00"/>
    </vehicle>

    <vehicle id="35" depart="35.00" arrival="177.00">
        <route edges="31.0.00 -74.0.00 -10.0.00 -11.0.00 -36.0.00 -37.0.00 -38.0.00 -26.0.00 -63.0.00 -64.0.00 20.0.00 19.0.00 18.0.00 17.0.00 80.0.00 79.2.76 79.0.00 78.0.00 -69.0.00 -5.0.00 -6.0.00 82.0.00 81.0.00"/>
    </vehicle>

    <vehicle id="50" depart="50.00" arrival="179.00">
        <route edges="-20.0.00 64.0.00 3.0.00 19.0.00 18.0.00 17.0.00 -81.0.00 -82.0.00"/>
    </vehicle>

    <vehicle id="57" depart="57.00" arrival="182.00">
        <route edges="-3.0.00 -64.0.00 20.0.00 19.0.00 18.0.00 -47.0.00"/>
    </vehicle>

    <vehicle id="72" depart="72.00" arrival="183.00">
        <route edges="83.0.00 24.0.00 73.0.00 72.0.00 71.0.00 70.0.00 69.0.00"/>
    </vehicle>

    <vehicle id="48" depart="48.00" arrival="184.00">
        <route edges="-32.0.00 -60.0.00 -73.0.00 23.0.00 22.0.00 21.0.00 64.0.00 3.0.00 -20.0.00"/>
    </vehicle>

    <vehicle id="62" depart="62.00" arrival="184.00">
        <route edges="-8.0.00 35.0.00 -37.0.00 -38.0.00 -26.0.00 -63.0.00 -4.0.00 -24.0.00 -83.0.00 -54.0.00 -84.0.00 -85.0.00 -62.0.00 -50.0.00 -51.0.00"/>
    </vehicle>

    <vehicle id="95" depart="95.00" arrival="186.00">
        <route edges="1.0.00 -46.0.00 -18.0.00 -19.0.00 -20.0.00 -21.0.00 -22.0.00 -23.0.00"/>
    </vehicle>

    <vehicle id="73" depart="75.00" arrival="188.00">
        <route edges="20.0.00 -3.0.00 -4.0.00 -24.0.00 -83.0.00"/>
    </vehicle>

    <vehicle id="82" depart="82.00" arrival="188.00">
        <route edges="31.0.00 -74.0.00 -10.0.00 -11.0.00 -36.0.00 -37.0.00 -38.0.00 -26.0.00 -63.0.00 -64.0.00"/>
    </vehicle>

    <vehicle id="31" depart="31.00" arrival="189.00">
        <route edges="20.0.00 -3.0.00 -4.0.00 23.0.00"/>
    </vehicle>

    <vehicle id="26" depart="26.00" arrival="190.00">
        <route edges="-31.0.00 24.0.00 4.0.00 3.0.00 19.0.00 18.0.00 17.0.00 80.0.00 79.2.76 79.0.00 78.0.00 -69.0.00 -70.0.00 -53.0.00"/>
    </vehicle>

    <vehicle id="65" depart="65.00" arrival="191.00">
        <route edges="15.0.00 -29.0.00 -19.0.00 -3.0.00 -4.0.00 23.0.00"/>
    </vehicle>

    <vehicle id="97" depart="97.00" arrival="191.00">
        <route edges="0.0.00 -78.0.00 -79.0.00 -79.2.76 -80.0.00 -17.0.00 -18.0.00 -19.0.00 -3.0.00"/>
    </vehicle>

    <vehicle id="54" depart="54.00" arrival="192.00">
        <route edges="-3.0.00 -64.0.00 20.0.00 19.0.00 18.0.00 17.0.00 80.0.00 79.2.76 79.0.00 78.0.00 -69.0.00 -5.0.00 -6.0.00 82.0.00"/>
    </vehicle>

    <vehicle id="91" depart="91.00" arrival="192.00">
        <route edges="35.0.00 -37.0.00 -38.0.00 -26.0.00 -63.0.00 -64.0.00 -21.0.00 -22.0.00 -23.0.00"/>
    </vehicle>

    <vehicle id="47" depart="47.00" arrival="193.00">
        <route edges="-48.0.00 -8.0.00 35.0.00 -37.0.00 -38.0.00 -26.0.00 -63.0.00 -4.0.00 -24.0.00 -83.0.00 53.0.00 -71.0.00"/>
    </vehicle>

    <vehicle id="71" depart="71.00" arrival="194.00">
        <route edges="-62.0.00 -50.0.00 -51.0.00 54.0.00 83.0.00 24.0.00 4.0.00 -64.0.00 -21.0.00 -22.0.00"/>
    </vehicle>

    <vehicle id="37" depart="37.00" arrival="196.00">
        <route edges="-83.0.00 -54.0.00 -84.0.00 -85.0.00 -62.0.00 -50.0.00 -51.0.00 54.0.00 83.0.00 24.0.00 23.0.00 22.0.00 21.0.00 20.0.00 -3.0.00"/>
    </vehicle>

    <vehicle id="51" depart="51.00" arrival="196.00">
        <route edges="-71.0.00 34.0.00 33.0.00 32.0.00 31.0.00 -74.0.00 -10.0.00 -11.0.00 -36.0.00 -37.0.00 -38.0.00 -26.0.00 -63.0.00 -4.0.00"/>
    </vehicle>

    <vehicle id="9" depart="9.00" arrival="197.00">
        <route edges="69.0.00 -0.0.00 -1.0.00 -2.0.00 -3.0.00 -64.0.00 20.0.00 2.0.00 1.0.00 -46.0.00 -18.0.00"/>
    </vehicle>

    <vehicle id="75" depart="75.00" arrival="199.00">
        <route edges="4.0.00 -64.0.00 -21.0.00 -22.0.00 -23.0.00 -24.0.00 -83.0.00 53.0.00 -71.0.00"/>
    </vehicle>

    <vehicle id="53" depart="53.00" arrival="200.00">
        <route edges="-83.0.00 -54.0.00 -84.0.00 -85.0.00 -62.0.00 -50.0.00 -51.0.00 54.0.00 83.0.00 24.0.00 4.0.00 3.0.00 2.0.00 1.0.00 0.0.00"/>
    </vehicle>

    <vehicle id="36" depart="36.00" arrival="201.00">
        <route edges="-71.0.00 -72.0.00 -73.0.00 23.0.00 22.0.00 21.0.00 20.0.00 19.0.00 18.0.00 17.0.00 -81.0.00"/>
    </vehicle>

    <vehicle id="42" depart="43.00" arrival="201.00">
        <route edges="0.0.00 -78.0.00 -79.0.00 -79.2.76 -80.0.00 -17.0.00 -18.0.00 -19.0.00 -20.0.00 64.0.00 3.0.00"/>
    </vehicle>

    <vehicle id="98" depart="100.00" arrival="204.00">
        <route edges="-71.0.00 34.0.00 33.0.00 32.0.00 -83.0.00 -54.0.00 -84.0.00 -85.0.00 -62.0.00 -50.0.00 -51.0.00 54.0.00 83.0.00"/>
    </vehicle>

    <vehicle id="manual_vehicle_1" depart="4.00" arrival="208.00">
        <route edges="20.0.00 -3.0.00 -4.0.00 23.0.00"/>
    </vehicle>

</routes>
