<?xml version="1.0" encoding="UTF-8"?>

<!-- generated on 11/28/19 22:50:35 by Eclipse SUMO GUI Version 1.3.1
<configuration xmlns:xsi="http://www.w3.org/2001/XMLSchema-instance" xsi:noNamespaceSchemaLocation="http://sumo.dlr.de/xsd/sumoConfiguration.xsd">

    <input>
        <net-file value="simulations/Town03/Town03.net.xml"/>
        <route-files value="simulations/Town03/Town03.rou.xml"/>
        <additional-files value="simulations/Town03/Town03.poly.xml"/>
    </input>

    <output>
        <netstate-dump value="simulations/Town03/Town03.sumo.tr"/>
        <tripinfo-output value="simulations/Town03/Town03-output-tripinfos.xml"/>
        <vehroute-output value="simulations/Town03/Town03-output-vehroutes.xml"/>
    </output>

    <time>
        <begin value="0"/>
        <end value="1000"/>
    </time>

    <traci_server>
        <remote-port value="56830"/>
    </traci_server>

</configuration>
-->

<tripinfos xmlns:xsi="http://www.w3.org/2001/XMLSchema-instance" xsi:noNamespaceSchemaLocation="http://sumo.dlr.de/xsd/tripinfo_file.xsd">
    <tripinfo id="manual_vehicle_1" depart="91.00" departLane="-7.0.00_0" departPos="5.10" departSpeed="0.00" departDelay="0.00" arrival="159.00" arrivalLane="-29.0.00_0" arrivalPos="78.53" arrivalSpeed="6.45" duration="68.00" routeLength="2178.86" waitingTime="0.00" waitingCount="0" stopTime="0.00" timeLoss="24.51" rerouteNo="0" devices="vehroute_manual_vehicle_1 tripinfo_manual_vehicle_1" vType="DEFAULT_VEHTYPE" speedFactor="0.94" vaporized=""/>
    <tripinfo id="manual_vehicle_0" depart="0.00" departLane="69.0.00_0" departPos="5.10" departSpeed="0.00" departDelay="0.00" arrival="215.00" arrivalLane="-18.0.00_1" arrivalPos="56.18" arrivalSpeed="14.23" duration="215.00" routeLength="13903.67" waitingTime="0.00" waitingCount="0" stopTime="0.00" timeLoss="64.43" rerouteNo="0" devices="vehroute_manual_vehicle_0 tripinfo_manual_vehicle_0" vType="DEFAULT_VEHTYPE" speedFactor="1.06" vaporized=""/>
    <tripinfo id="manual_vehicle_4" depart="180.00" departLane="-2.0.00_0" departPos="5.10" departSpeed="0.00" departDelay="0.00" arrival="357.00" arrivalLane="-83.0.00_1" arrivalPos="200.86" arrivalSpeed="13.61" duration="177.00" routeLength="6444.83" waitingTime="0.00" waitingCount="0" stopTime="0.00" timeLoss="33.72" rerouteNo="0" devices="vehroute_manual_vehicle_4 tripinfo_manual_vehicle_4" vType="DEFAULT_VEHTYPE" speedFactor="1.03" vaporized=""/>
    <tripinfo id="manual_vehicle_2" depart="160.00" departLane="69.0.00_0" departPos="5.10" departSpeed="0.00" departDelay="0.00" arrival="417.00" arrivalLane="-18.0.00_1" arrivalPos="56.18" arrivalSpeed="12.98" duration="257.00" routeLength="7716.55" waitingTime="0.00" waitingCount="0" stopTime="0.00" timeLoss="26.85" rerouteNo="0" devices="vehroute_manual_vehicle_2 tripinfo_manual_vehicle_2" vType="DEFAULT_VEHTYPE" speedFactor="1.01" vaporized=""/>
    <tripinfo id="manual_vehicle_3" depart="164.00" departLane="83.0.00_0" departPos="5.10" departSpeed="0.00" departDelay="0.00" arrival="768.00" arrivalLane="-17.0.00_1" arrivalPos="46.66" arrivalSpeed="7.89" duration="604.00" routeLength="19065.31" waitingTime="21.00" waitingCount="21" stopTime="0.00" timeLoss="194.92" rerouteNo="0" devices="vehroute_manual_vehicle_3 tripinfo_manual_vehicle_3" vType="DEFAULT_VEHTYPE" speedFactor="1.08" vaporized=""/>
