<?xml version="1.0" encoding="UTF-8"?>

<!-- generated on 05/07/20 17:17:51 by Eclipse SUMO GUI Version 1.3.1
<configuration xmlns:xsi="http://www.w3.org/2001/XMLSchema-instance" xsi:noNamespaceSchemaLocation="http://sumo.dlr.de/xsd/sumoConfiguration.xsd">

    <input>
        <net-file value="simulations/Town03/Town03.net.xml"/>
        <route-files value="simulations/Town03/Town03.rou.xml"/>
        <additional-files value="simulations/Town03/Town03.poly.xml"/>
    </input>

    <output>
        <netstate-dump value="simulations/Town03/Town03.sumo.tr"/>
        <tripinfo-output value="simulations/Town03/Town03-output-tripinfos.xml"/>
        <vehroute-output value="simulations/Town03/Town03-output-vehroutes.xml"/>
    </output>

    <time>
        <begin value="0"/>
        <end value="1000"/>
    </time>

    <traci_server>
        <remote-port value="53822"/>
    </traci_server>

</configuration>
-->

<routes xmlns:xsi="http://www.w3.org/2001/XMLSchema-instance" xsi:noNamespaceSchemaLocation="http://sumo.dlr.de/xsd/routes_file.xsd">
    <vehicle id="manual_vehicle_1" depart="4.00" arrival="66.00">
        <route edges="-2.0.00 -3.0.00 -4.0.00 -24.0.00 -83.0.00"/>
    </vehicle>

    <vehicle id="manual_vehicle_0" depart="0.00" arrival="89.00">
        <route edges="83.0.00 24.0.00 4.0.00 3.0.00 2.0.00 1.0.00"/>
    </vehicle>

    <vehicle id="manual_vehicle_2" depart="8.00" arrival="269.00">
        <route edges="20.0.00 19.0.00 18.0.00 17.0.00 80.0.00 79.2.76 79.0.00 78.0.00 -69.0.00 -5.0.00 -6.0.00 82.0.00 81.0.00"/>
    </vehicle>

    <vehicle id="manual_vehicle_3" depart="270.00" arrival="704.00">
        <route edges="69.0.00 -0.0.00 -1.0.00 -2.0.00 -3.0.00 -64.0.00 20.0.00 19.0.00 18.0.00 17.0.00 80.0.00 79.2.76 79.0.00 78.0.00 -69.0.00"/>
    </vehicle>

</routes>
