<?xml version="1.0" encoding="UTF-8"?>

<!-- generated on 01/06/20 18:19:31 by Eclipse SUMO GUI Version 1.3.1
<configuration xmlns:xsi="http://www.w3.org/2001/XMLSchema-instance" xsi:noNamespaceSchemaLocation="http://sumo.dlr.de/xsd/sumoConfiguration.xsd">

    <input>
        <net-file value="simulations/Town03/Town03.net.xml"/>
        <route-files value="simulations/Town03/Town03.rou.xml"/>
        <additional-files value="simulations/Town03/Town03.poly.xml"/>
    </input>

    <output>
        <netstate-dump value="simulations/Town03/Town03.sumo.tr"/>
        <tripinfo-output value="simulations/Town03/Town03-output-tripinfos.xml"/>
        <vehroute-output value="simulations/Town03/Town03-output-vehroutes.xml"/>
    </output>

    <time>
        <begin value="0"/>
        <end value="1000"/>
    </time>

    <traci_server>
        <remote-port value="51211"/>
        <num-clients value="1"/>
    </traci_server>

</configuration>
-->

<routes xmlns:xsi="http://www.w3.org/2001/XMLSchema-instance" xsi:noNamespaceSchemaLocation="http://sumo.dlr.de/xsd/routes_file.xsd">
    <vehicle id="manual_vehicle_0" depart="0.00" arrival="72.00">
        <route edges="-70.0.00 -53.0.00 -54.0.00 -84.0.00 -85.0.00 -62.0.00"/>
    </vehicle>

    <vehicle id="manual_vehicle_1" depart="73.00" arrival="123.00">
        <route edges="-3.0.00 -64.0.00"/>
    </vehicle>

    <vehicle id="manual_vehicle_2" depart="124.00" arrival="433.00">
        <route edges="83.0.00 24.0.00 4.0.00 3.0.00 2.0.00 1.0.00"/>
    </vehicle>

</routes>
