<?xml version="1.0" encoding="UTF-8"?>

<!-- generated on Wed Aug 14 14:40:06 2019 by Eclipse SUMO Version 1.2.0
<configuration xmlns:xsi="http://www.w3.org/2001/XMLSchema-instance" xsi:noNamespaceSchemaLocation="http://sumo.dlr.de/xsd/sumoConfiguration.xsd">

    <input>
        <net-file value="simulations/Town03/Town03.net.xml"/>
        <route-files value="simulations/Town03/Town03.rou.xml"/>
        <additional-files value="simulations/Town03/Town03.poly.xml"/>
    </input>

    <output>
        <netstate-dump value="simulations/Town03/Town03.sumo.tr"/>
        <tripinfo-output value="simulations/Town03/Town03-output-tripinfos.xml"/>
        <vehroute-output value="simulations/Town03/Town03-output-vehroutes.xml"/>
    </output>

    <time>
        <begin value="0"/>
        <end value="1000"/>
    </time>

    <traci_server>
        <remote-port value="59559"/>
    </traci_server>

</configuration>
-->

<tripinfos xmlns:xsi="http://www.w3.org/2001/XMLSchema-instance" xsi:noNamespaceSchemaLocation="http://sumo.dlr.de/xsd/tripinfo_file.xsd">
    <tripinfo id="manual_vehicle_0" depart="0.00" departLane="-7.0.00_0" departPos="5.10" departSpeed="0.00" departDelay="0.00" arrival="21.00" arrivalLane="-29.0.00_0" arrivalPos="78.53" arrivalSpeed="13.82" duration="21.00" routeLength="237.80" waitingTime="0.00" waitingCount="0" stopTime="0.00" timeLoss="3.74" rerouteNo="0" devices="vehroute_manual_vehicle_0 tripinfo_manual_vehicle_0" vType="DEFAULT_VEHTYPE" speedFactor="1.06" vaporized=""/>
    <tripinfo id="4" depart="4.00" departLane="-3.0.00_0" departPos="5.10" departSpeed="0.00" departDelay="0.00" arrival="22.00" arrivalLane="-64.0.00_0" arrivalPos="40.44" arrivalSpeed="14.31" duration="18.00" routeLength="164.03" waitingTime="0.00" waitingCount="0" stopTime="0.00" timeLoss="5.39" rerouteNo="0" devices="vehroute_4 tripinfo_4" vType="DEFAULT_VEHTYPE" speedFactor="1.03" vaporized=""/>
    <tripinfo id="2" depart="2.00" departLane="-70.0.00_0" departPos="5.10" departSpeed="0.00" departDelay="0.00" arrival="25.00" arrivalLane="-62.0.00_1" arrivalPos="76.33" arrivalSpeed="13.92" duration="23.00" routeLength="251.94" waitingTime="0.00" waitingCount="0" stopTime="0.00" timeLoss="4.27" rerouteNo="0" devices="vehroute_2 tripinfo_2" vType="DEFAULT_VEHTYPE" speedFactor="1.01" vaporized=""/>
    <tripinfo id="10" depart="10.00" departLane="-7.0.00_0" departPos="5.10" departSpeed="0.00" departDelay="0.00" arrival="31.00" arrivalLane="-29.0.00_0" arrivalPos="78.53" arrivalSpeed="14.07" duration="21.00" routeLength="237.80" waitingTime="0.00" waitingCount="0" stopTime="0.00" timeLoss="3.75" rerouteNo="0" devices="vehroute_10 tripinfo_10" vType="DEFAULT_VEHTYPE" speedFactor="1.09" vaporized=""/>
    <tripinfo id="15" depart="15.00" departLane="23.0.00_0" departPos="5.10" departSpeed="0.00" departDelay="0.00" arrival="51.00" arrivalLane="-14.0.00_1" arrivalPos="3.06" arrivalSpeed="8.61" duration="36.00" routeLength="319.23" waitingTime="0.00" waitingCount="0" stopTime="0.00" timeLoss="8.77" rerouteNo="0" devices="vehroute_15 tripinfo_15" vType="DEFAULT_VEHTYPE" speedFactor="0.93" vaporized=""/>
    <tripinfo id="23" depart="26.00" departLane="71.0.00_0" departPos="5.10" departSpeed="0.00" departDelay="3.00" arrival="54.00" arrivalLane="71.0.00_0" arrivalPos="328.39" arrivalSpeed="13.51" duration="28.00" routeLength="323.29" waitingTime="0.00" waitingCount="0" stopTime="0.00" timeLoss="4.35" rerouteNo="0" devices="vehroute_23 tripinfo_23" vType="DEFAULT_VEHTYPE" speedFactor="1.01" vaporized=""/>
    <tripinfo id="29" depart="29.00" departLane="-71.0.00_0" departPos="5.10" departSpeed="0.00" departDelay="0.00" arrival="57.00" arrivalLane="-71.0.00_0" arrivalPos="314.88" arrivalSpeed="12.28" duration="28.00" routeLength="309.78" waitingTime="0.00" waitingCount="0" stopTime="0.00" timeLoss="4.09" rerouteNo="0" devices="vehroute_29 tripinfo_29" vType="DEFAULT_VEHTYPE" speedFactor="0.95" vaporized=""/>
    <tripinfo id="33" depart="33.00" departLane="2.0.00_0" departPos="5.10" departSpeed="0.00" departDelay="0.00" arrival="60.00" arrivalLane="-18.0.00_1" arrivalPos="56.18" arrivalSpeed="14.98" duration="27.00" routeLength="307.91" waitingTime="0.00" waitingCount="0" stopTime="0.00" timeLoss="6.21" rerouteNo="0" devices="vehroute_33 tripinfo_33" vType="DEFAULT_VEHTYPE" speedFactor="1.15" vaporized=""/>
    <tripinfo id="0" depart="0.00" departLane="3.0.00_0" departPos="5.10" departSpeed="0.00" departDelay="0.00" arrival="62.00" arrivalLane="-72.0.00_0" arrivalPos="28.96" arrivalSpeed="12.07" duration="62.00" routeLength="669.77" waitingTime="0.00" waitingCount="0" stopTime="0.00" timeLoss="14.90" rerouteNo="0" devices="vehroute_0 tripinfo_0" vType="DEFAULT_VEHTYPE" speedFactor="1.06" vaporized=""/>
    <tripinfo id="12" depart="12.00" departLane="-48.0.00_0" departPos="5.10" departSpeed="0.00" departDelay="0.00" arrival="63.00" arrivalLane="-47.0.00_1" arrivalPos="39.06" arrivalSpeed="13.53" duration="51.00" routeLength="471.97" waitingTime="3.00" waitingCount="1" stopTime="0.00" timeLoss="15.08" rerouteNo="0" devices="vehroute_12 tripinfo_12" vType="DEFAULT_VEHTYPE" speedFactor="1.05" vaporized=""/>
    <tripinfo id="40" depart="40.00" departLane="-29.0.00_0" departPos="5.10" departSpeed="0.00" departDelay="0.00" arrival="65.00" arrivalLane="-2.0.00_1" arrivalPos="116.84" arrivalSpeed="14.39" duration="25.00" routeLength="281.52" waitingTime="0.00" waitingCount="0" stopTime="0.00" timeLoss="5.82" rerouteNo="0" devices="vehroute_40 tripinfo_40" vType="DEFAULT_VEHTYPE" speedFactor="1.10" vaporized=""/>
    <tripinfo id="27" depart="27.00" departLane="-20.0.00_0" departPos="5.10" departSpeed="0.00" departDelay="0.00" arrival="74.00" arrivalLane="72.0.00_0" arrivalPos="29.63" arrivalSpeed="11.74" duration="47.00" routeLength="475.54" waitingTime="0.00" waitingCount="0" stopTime="0.00" timeLoss="5.87" rerouteNo="0" devices="vehroute_27 tripinfo_27" vType="DEFAULT_VEHTYPE" speedFactor="0.87" vaporized=""/>
    <tripinfo id="22" depart="22.00" departLane="2.0.00_0" departPos="5.10" departSpeed="0.00" departDelay="0.00" arrival="77.00" arrivalLane="-69.0.00_0" arrivalPos="235.29" arrivalSpeed="13.64" duration="55.00" routeLength="615.96" waitingTime="0.00" waitingCount="0" stopTime="0.00" timeLoss="8.58" rerouteNo="0" devices="vehroute_22 tripinfo_22" vType="DEFAULT_VEHTYPE" speedFactor="1.02" vaporized=""/>
    <tripinfo id="6" depart="6.00" departLane="-2.0.00_0" departPos="5.10" departSpeed="0.00" departDelay="0.00" arrival="78.00" arrivalLane="-83.0.00_1" arrivalPos="200.86" arrivalSpeed="13.23" duration="72.00" routeLength="690.64" waitingTime="7.00" waitingCount="2" stopTime="0.00" timeLoss="23.57" rerouteNo="0" devices="vehroute_6 tripinfo_6" vType="DEFAULT_VEHTYPE" speedFactor="1.05" vaporized=""/>
    <tripinfo id="13" depart="13.00" departLane="-8.0.00_0" departPos="5.10" departSpeed="0.00" departDelay="0.00" arrival="80.00" arrivalLane="-69.0.00_0" arrivalPos="235.29" arrivalSpeed="15.02" duration="67.00" routeLength="726.01" waitingTime="2.00" waitingCount="1" stopTime="0.00" timeLoss="16.57" rerouteNo="0" devices="vehroute_13 tripinfo_13" vType="DEFAULT_VEHTYPE" speedFactor="1.12" vaporized=""/>
    <tripinfo id="34" depart="34.00" departLane="-48.0.00_0" departPos="5.10" departSpeed="0.00" departDelay="0.00" arrival="82.00" arrivalLane="-20.0.00_1" arrivalPos="166.30" arrivalSpeed="13.29" duration="48.00" routeLength="507.13" waitingTime="0.00" waitingCount="0" stopTime="0.00" timeLoss="9.65" rerouteNo="0" devices="vehroute_34 tripinfo_34" vType="DEFAULT_VEHTYPE" speedFactor="1.01" vaporized=""/>
    <tripinfo id="41" depart="41.00" departLane="-83.0.00_0" departPos="5.10" departSpeed="0.00" departDelay="0.00" arrival="82.00" arrivalLane="-84.0.00_1" arrivalPos="11.11" arrivalSpeed="12.43" duration="41.00" routeLength="284.14" waitingTime="6.00" waitingCount="2" stopTime="0.00" timeLoss="16.58" rerouteNo="0" devices="vehroute_41 tripinfo_41" vType="DEFAULT_VEHTYPE" speedFactor="0.90" vaporized=""/>
    <tripinfo id="1" depart="1.00" departLane="20.0.00_0" departPos="5.10" departSpeed="0.00" departDelay="0.00" arrival="92.00" arrivalLane="81.0.00_1" arrivalPos="39.49" arrivalSpeed="11.86" duration="91.00" routeLength="905.86" waitingTime="1.00" waitingCount="1" stopTime="0.00" timeLoss="17.89" rerouteNo="0" devices="vehroute_1 tripinfo_1" vType="DEFAULT_VEHTYPE" speedFactor="0.94" vaporized=""/>
    <tripinfo id="7" depart="7.00" departLane="-83.0.00_0" departPos="5.10" departSpeed="0.00" departDelay="0.00" arrival="93.00" arrivalLane="23.0.00_1" arrivalPos="62.61" arrivalSpeed="12.09" duration="86.00" routeLength="807.52" waitingTime="1.00" waitingCount="1" stopTime="0.00" timeLoss="17.50" rerouteNo="0" devices="vehroute_7 tripinfo_7" vType="DEFAULT_VEHTYPE" speedFactor="0.89" vaporized=""/>
    <tripinfo id="11" depart="11.00" departLane="83.0.00_0" departPos="5.10" departSpeed="0.00" departDelay="0.00" arrival="94.00" arrivalLane="1.0.00_0" arrivalPos="49.80" arrivalSpeed="14.19" duration="83.00" routeLength="733.53" waitingTime="7.00" waitingCount="2" stopTime="0.00" timeLoss="29.45" rerouteNo="0" devices="vehroute_11 tripinfo_11" vType="DEFAULT_VEHTYPE" speedFactor="1.03" vaporized=""/>
    <tripinfo id="3" depart="3.00" departLane="83.0.00_0" departPos="5.10" departSpeed="0.00" departDelay="0.00" arrival="109.00" arrivalLane="-17.0.00_1" arrivalPos="46.66" arrivalSpeed="13.79" duration="106.00" routeLength="917.94" waitingTime="1.00" waitingCount="1" stopTime="0.00" timeLoss="11.81" rerouteNo="0" devices="vehroute_3 tripinfo_3" vType="DEFAULT_VEHTYPE" speedFactor="1.08" vaporized=""/>
    <tripinfo id="56" depart="56.00" departLane="-18.0.00_0" departPos="5.10" departSpeed="0.00" departDelay="0.00" arrival="109.00" arrivalLane="-23.0.00_1" arrivalPos="73.49" arrivalSpeed="15.14" duration="53.00" routeLength="521.24" waitingTime="5.00" waitingCount="1" stopTime="0.00" timeLoss="17.52" rerouteNo="0" devices="vehroute_56 tripinfo_56" vType="DEFAULT_VEHTYPE" speedFactor="1.10" vaporized=""/>
    <tripinfo id="28" depart="28.00" departLane="-20.0.00_0" departPos="5.10" departSpeed="0.00" departDelay="0.00" arrival="116.00" arrivalLane="20.0.00_0" arrivalPos="155.16" arrivalSpeed="1.08" duration="88.00" routeLength="528.19" waitingTime="0.00" waitingCount="0" stopTime="0.00" timeLoss="23.09" rerouteNo="0" devices="vehroute_28 tripinfo_28" vType="DEFAULT_VEHTYPE" speedFactor="0.92" vaporized=""/>
    <tripinfo id="85" depart="85.00" departLane="46.0.00_0" departPos="5.10" departSpeed="0.00" departDelay="0.00" arrival="118.00" arrivalLane="-61.0.00_0" arrivalPos="46.10" arrivalSpeed="14.07" duration="33.00" routeLength="268.97" waitingTime="0.00" waitingCount="0" stopTime="0.00" timeLoss="10.28" rerouteNo="0" devices="vehroute_85 tripinfo_85" vType="DEFAULT_VEHTYPE" speedFactor="1.03" vaporized=""/>
    <tripinfo id="46" depart="46.00" departLane="22.0.00_0" departPos="5.10" departSpeed="0.00" departDelay="0.00" arrival="119.00" arrivalLane="-20.0.00_1" arrivalPos="166.30" arrivalSpeed="14.08" duration="73.00" routeLength="473.70" waitingTime="25.00" waitingCount="1" stopTime="0.00" timeLoss="37.38" rerouteNo="0" devices="vehroute_46 tripinfo_46" vType="DEFAULT_VEHTYPE" speedFactor="1.04" vaporized=""/>
    <tripinfo id="87" depart="87.00" departLane="-46.0.00_0" departPos="5.10" departSpeed="0.00" departDelay="0.00" arrival="120.00" arrivalLane="-2.0.00_1" arrivalPos="116.84" arrivalSpeed="13.63" duration="33.00" routeLength="305.35" waitingTime="0.00" waitingCount="0" stopTime="0.00" timeLoss="8.57" rerouteNo="0" devices="vehroute_87 tripinfo_87" vType="DEFAULT_VEHTYPE" speedFactor="1.02" vaporized=""/>
    <tripinfo id="63" depart="63.00" departLane="-21.0.00_0" departPos="5.10" departSpeed="0.00" departDelay="0.00" arrival="125.00" arrivalLane="-54.0.00_1" arrivalPos="53.12" arrivalSpeed="12.49" duration="62.00" routeLength="555.93" waitingTime="2.00" waitingCount="1" stopTime="0.00" timeLoss="16.59" rerouteNo="0" devices="vehroute_63 tripinfo_63" vType="DEFAULT_VEHTYPE" speedFactor="0.97" vaporized=""/>
    <tripinfo id="32" depart="32.00" departLane="-83.0.00_0" departPos="5.10" departSpeed="0.00" departDelay="0.00" arrival="127.00" arrivalLane="3.0.00_0" arrivalPos="118.05" arrivalSpeed="15.71" duration="95.00" routeLength="976.36" waitingTime="0.00" waitingCount="0" stopTime="0.00" timeLoss="20.72" rerouteNo="0" devices="vehroute_32 tripinfo_32" vType="DEFAULT_VEHTYPE" speedFactor="1.18" vaporized=""/>
    <tripinfo id="25" depart="25.00" departLane="-74.0.00_0" departPos="5.10" departSpeed="0.00" departDelay="0.00" arrival="129.00" arrivalLane="1.0.00_1" arrivalPos="49.80" arrivalSpeed="12.09" duration="104.00" routeLength="594.18" waitingTime="16.00" waitingCount="3" stopTime="0.00" timeLoss="53.29" rerouteNo="0" devices="vehroute_25 tripinfo_25" vType="DEFAULT_VEHTYPE" speedFactor="0.89" vaporized=""/>
    <tripinfo id="17" depart="17.00" departLane="-2.0.00_0" departPos="5.10" departSpeed="0.00" departDelay="0.00" arrival="132.00" arrivalLane="-18.0.00_1" arrivalPos="56.18" arrivalSpeed="8.27" duration="115.00" routeLength="809.39" waitingTime="10.00" waitingCount="3" stopTime="0.00" timeLoss="44.91" rerouteNo="0" devices="vehroute_17 tripinfo_17" vType="DEFAULT_VEHTYPE" speedFactor="0.88" vaporized=""/>
    <tripinfo id="81" depart="81.00" departLane="71.0.00_0" departPos="5.10" departSpeed="0.00" departDelay="0.00" arrival="132.00" arrivalLane="69.0.00_0" arrivalPos="249.24" arrivalSpeed="13.80" duration="51.00" routeLength="659.24" waitingTime="0.00" waitingCount="0" stopTime="0.00" timeLoss="4.90" rerouteNo="0" devices="vehroute_81 tripinfo_81" vType="DEFAULT_VEHTYPE" speedFactor="1.03" vaporized=""/>
    <tripinfo id="66" depart="66.00" departLane="17.0.00_0" departPos="5.10" departSpeed="0.00" departDelay="0.00" arrival="133.00" arrivalLane="83.0.00_1" arrivalPos="189.96" arrivalSpeed="13.63" duration="67.00" routeLength="685.70" waitingTime="1.00" waitingCount="1" stopTime="0.00" timeLoss="14.77" rerouteNo="0" devices="vehroute_66 tripinfo_66" vType="DEFAULT_VEHTYPE" speedFactor="1.02" vaporized=""/>
    <tripinfo id="52" depart="52.00" departLane="4.0.00_0" departPos="5.10" departSpeed="0.00" departDelay="0.00" arrival="136.00" arrivalLane="73.0.00_0" arrivalPos="57.35" arrivalSpeed="10.69" duration="84.00" routeLength="434.60" waitingTime="23.00" waitingCount="3" stopTime="0.00" timeLoss="44.58" rerouteNo="0" devices="vehroute_52 tripinfo_52" vType="DEFAULT_VEHTYPE" speedFactor="0.85" vaporized=""/>
    <tripinfo id="45" depart="45.00" departLane="83.0.00_0" departPos="5.10" departSpeed="0.00" departDelay="0.00" arrival="138.00" arrivalLane="-82.0.00_1" arrivalPos="48.33" arrivalSpeed="14.27" duration="93.00" routeLength="870.96" waitingTime="1.00" waitingCount="1" stopTime="0.00" timeLoss="29.92" rerouteNo="0" devices="vehroute_45 tripinfo_45" vType="DEFAULT_VEHTYPE" speedFactor="1.04" vaporized=""/>
    <tripinfo id="83" depart="83.00" departLane="-3.0.00_0" departPos="5.10" departSpeed="0.00" departDelay="0.00" arrival="141.00" arrivalLane="31.0.00_1" arrivalPos="78.83" arrivalSpeed="13.77" duration="58.00" routeLength="420.03" waitingTime="12.00" waitingCount="2" stopTime="0.00" timeLoss="27.00" rerouteNo="0" devices="vehroute_83 tripinfo_83" vType="DEFAULT_VEHTYPE" speedFactor="1.01" vaporized=""/>
    <tripinfo id="5" depart="5.00" departLane="29.0.00_0" departPos="5.10" departSpeed="0.00" departDelay="0.00" arrival="144.00" arrivalLane="-69.0.00_0" arrivalPos="235.29" arrivalSpeed="10.89" duration="139.00" routeLength="950.98" waitingTime="12.00" waitingCount="4" stopTime="0.00" timeLoss="53.68" rerouteNo="0" devices="vehroute_5 tripinfo_5" vType="DEFAULT_VEHTYPE" speedFactor="0.83" vaporized=""/>
    <tripinfo id="43" depart="43.00" departLane="4.0.00_0" departPos="5.10" departSpeed="0.00" departDelay="0.00" arrival="146.00" arrivalLane="69.0.00_0" arrivalPos="249.24" arrivalSpeed="12.37" duration="103.00" routeLength="1177.73" waitingTime="0.00" waitingCount="0" stopTime="0.00" timeLoss="12.67" rerouteNo="0" devices="vehroute_43 tripinfo_43" vType="DEFAULT_VEHTYPE" speedFactor="0.96" vaporized=""/>
    <tripinfo id="30" depart="30.00" departLane="54.0.00_0" departPos="5.10" departSpeed="0.00" departDelay="0.00" arrival="148.00" arrivalLane="-69.0.00_1" arrivalPos="235.29" arrivalSpeed="15.35" duration="118.00" routeLength="1130.33" waitingTime="3.00" waitingCount="1" stopTime="0.00" timeLoss="34.86" rerouteNo="0" devices="vehroute_30 tripinfo_30" vType="DEFAULT_VEHTYPE" speedFactor="1.13" vaporized=""/>
    <tripinfo id="84" depart="84.00" departLane="-20.0.00_0" departPos="5.10" departSpeed="0.00" departDelay="0.00" arrival="148.00" arrivalLane="71.0.00_0" arrivalPos="328.39" arrivalSpeed="14.98" duration="64.00" routeLength="828.96" waitingTime="0.00" waitingCount="0" stopTime="0.00" timeLoss="6.52" rerouteNo="0" devices="vehroute_84 tripinfo_84" vType="DEFAULT_VEHTYPE" speedFactor="1.09" vaporized=""/>
    <tripinfo id="77" depart="77.00" departLane="83.0.00_0" departPos="5.10" departSpeed="0.00" departDelay="0.00" arrival="152.00" arrivalLane="4.0.00_0" arrivalPos="101.24" arrivalSpeed="12.84" duration="75.00" routeLength="377.15" waitingTime="4.00" waitingCount="3" stopTime="0.00" timeLoss="30.73" rerouteNo="0" devices="vehroute_77 tripinfo_77" vType="DEFAULT_VEHTYPE" speedFactor="0.94" vaporized=""/>
    <tripinfo id="61" depart="61.00" departLane="-47.0.00_0" departPos="5.10" departSpeed="0.00" departDelay="0.00" arrival="154.00" arrivalLane="-3.0.00_1" arrivalPos="118.05" arrivalSpeed="13.64" duration="93.00" routeLength="513.44" waitingTime="40.00" waitingCount="2" stopTime="0.00" timeLoss="57.92" rerouteNo="0" devices="vehroute_61 tripinfo_61" vType="DEFAULT_VEHTYPE" speedFactor="1.14" vaporized=""/>
    <tripinfo id="19" depart="22.00" departLane="-26.0.00_0" departPos="5.10" departSpeed="0.00" departDelay="3.00" arrival="161.00" arrivalLane="-19.0.00_0" arrivalPos="55.99" arrivalSpeed="1.26" duration="139.00" routeLength="696.40" waitingTime="19.00" waitingCount="4" stopTime="0.00" timeLoss="76.39" rerouteNo="0" devices="vehroute_19 tripinfo_19" vType="DEFAULT_VEHTYPE" speedFactor="0.94" vaporized=""/>
    <tripinfo id="39" depart="39.00" departLane="7.0.00_0" departPos="5.10" departSpeed="0.00" departDelay="0.00" arrival="161.00" arrivalLane="29.0.00_0" arrivalPos="78.53" arrivalSpeed="16.30" duration="122.00" routeLength="948.31" waitingTime="4.00" waitingCount="2" stopTime="0.00" timeLoss="36.17" rerouteNo="0" devices="vehroute_39 tripinfo_39" vType="DEFAULT_VEHTYPE" speedFactor="1.18" vaporized=""/>
    <tripinfo id="18" depart="18.00" departLane="73.0.00_0" departPos="5.10" departSpeed="0.00" departDelay="0.00" arrival="168.00" arrivalLane="-83.0.00_1" arrivalPos="200.86" arrivalSpeed="8.57" duration="150.00" routeLength="1667.62" waitingTime="2.00" waitingCount="1" stopTime="0.00" timeLoss="21.47" rerouteNo="0" devices="vehroute_18 tripinfo_18" vType="DEFAULT_VEHTYPE" speedFactor="0.94" vaporized=""/>
    <tripinfo id="55" depart="55.00" departLane="-73.0.00_0" departPos="5.10" departSpeed="0.00" departDelay="0.00" arrival="169.00" arrivalLane="2.0.00_1" arrivalPos="103.14" arrivalSpeed="13.87" duration="114.00" routeLength="531.48" waitingTime="29.00" waitingCount="4" stopTime="0.00" timeLoss="74.94" rerouteNo="0" devices="vehroute_55 tripinfo_55" vType="DEFAULT_VEHTYPE" speedFactor="1.02" vaporized=""/>
    <tripinfo id="80" depart="80.00" departLane="-53.0.00_0" departPos="5.10" departSpeed="0.00" departDelay="0.00" arrival="175.00" arrivalLane="0.0.00_0" arrivalPos="43.49" arrivalSpeed="13.54" duration="95.00" routeLength="865.93" waitingTime="1.00" waitingCount="1" stopTime="0.00" timeLoss="29.47" rerouteNo="0" devices="vehroute_80 tripinfo_80" vType="DEFAULT_VEHTYPE" speedFactor="0.98" vaporized=""/>
    <tripinfo id="24" depart="24.00" departLane="-71.0.00_0" departPos="5.10" departSpeed="0.00" departDelay="0.00" arrival="177.00" arrivalLane="-24.0.00_1" arrivalPos="49.62" arrivalSpeed="12.26" duration="153.00" routeLength="833.48" waitingTime="56.00" waitingCount="5" stopTime="0.00" timeLoss="88.65" rerouteNo="0" devices="vehroute_24 tripinfo_24" vType="DEFAULT_VEHTYPE" speedFactor="0.98" vaporized=""/>
    <tripinfo id="35" depart="35.00" departLane="31.0.00_0" departPos="5.10" departSpeed="0.00" departDelay="0.00" arrival="177.00" arrivalLane="81.0.00_1" arrivalPos="39.49" arrivalSpeed="15.15" duration="142.00" routeLength="1222.08" waitingTime="14.00" waitingCount="3" stopTime="0.00" timeLoss="62.16" rerouteNo="0" devices="vehroute_35 tripinfo_35" vType="DEFAULT_VEHTYPE" speedFactor="1.17" vaporized=""/>
    <tripinfo id="50" depart="50.00" departLane="-20.0.00_0" departPos="5.10" departSpeed="0.00" departDelay="0.00" arrival="179.00" arrivalLane="-82.0.00_1" arrivalPos="48.33" arrivalSpeed="12.49" duration="129.00" routeLength="705.17" waitingTime="43.00" waitingCount="3" stopTime="0.00" timeLoss="69.08" rerouteNo="0" devices="vehroute_50 tripinfo_50" vType="DEFAULT_VEHTYPE" speedFactor="0.90" vaporized=""/>
    <tripinfo id="57" depart="57.00" departLane="-3.0.00_0" departPos="5.10" departSpeed="0.00" departDelay="0.00" arrival="182.00" arrivalLane="-47.0.00_1" arrivalPos="39.06" arrivalSpeed="13.85" duration="125.00" routeLength="555.15" waitingTime="28.00" waitingCount="5" stopTime="0.00" timeLoss="83.27" rerouteNo="0" devices="vehroute_57 tripinfo_57" vType="DEFAULT_VEHTYPE" speedFactor="1.00" vaporized=""/>
    <tripinfo id="72" depart="72.00" departLane="83.0.00_0" departPos="5.10" departSpeed="0.00" departDelay="0.00" arrival="183.00" arrivalLane="69.0.00_0" arrivalPos="249.24" arrivalSpeed="11.44" duration="111.00" routeLength="1091.50" waitingTime="5.00" waitingCount="2" stopTime="0.00" timeLoss="23.06" rerouteNo="0" devices="vehroute_72 tripinfo_72" vType="DEFAULT_VEHTYPE" speedFactor="0.91" vaporized=""/>
    <tripinfo id="48" depart="48.00" departLane="-32.0.00_0" departPos="5.10" departSpeed="0.00" departDelay="0.00" arrival="184.00" arrivalLane="-20.0.00_1" arrivalPos="166.30" arrivalSpeed="13.67" duration="136.00" routeLength="698.76" waitingTime="57.00" waitingCount="4" stopTime="0.00" timeLoss="82.48" rerouteNo="0" devices="vehroute_48 tripinfo_48" vType="DEFAULT_VEHTYPE" speedFactor="1.00" vaporized=""/>
    <tripinfo id="62" depart="62.00" departLane="-8.0.00_0" departPos="5.10" departSpeed="0.00" departDelay="0.00" arrival="184.00" arrivalLane="-51.0.00_1" arrivalPos="4.27" arrivalSpeed="13.83" duration="122.00" routeLength="757.45" waitingTime="40.00" waitingCount="2" stopTime="0.00" timeLoss="66.94" rerouteNo="0" devices="vehroute_62 tripinfo_62" vType="DEFAULT_VEHTYPE" speedFactor="1.02" vaporized=""/>
    <tripinfo id="95" depart="95.00" departLane="1.0.00_0" departPos="5.10" departSpeed="0.00" departDelay="0.00" arrival="186.00" arrivalLane="-23.0.00_1" arrivalPos="73.49" arrivalSpeed="13.56" duration="91.00" routeLength="642.49" waitingTime="22.00" waitingCount="3" stopTime="0.00" timeLoss="43.40" rerouteNo="0" devices="vehroute_95 tripinfo_95" vType="DEFAULT_VEHTYPE" speedFactor="1.02" vaporized=""/>
    <tripinfo id="73" depart="75.00" departLane="20.0.00_0" departPos="5.10" departSpeed="0.00" departDelay="2.00" arrival="188.00" arrivalLane="-83.0.00_1" arrivalPos="200.86" arrivalSpeed="13.51" duration="113.00" routeLength="720.53" waitingTime="19.00" waitingCount="3" stopTime="0.00" timeLoss="61.05" rerouteNo="0" devices="vehroute_73 tripinfo_73" vType="DEFAULT_VEHTYPE" speedFactor="1.04" vaporized=""/>
    <tripinfo id="82" depart="82.00" departLane="31.0.00_0" departPos="5.10" departSpeed="0.00" departDelay="0.00" arrival="188.00" arrivalLane="-64.0.00_0" arrivalPos="40.44" arrivalSpeed="12.76" duration="106.00" routeLength="298.88" waitingTime="48.00" waitingCount="5" stopTime="0.00" timeLoss="82.58" rerouteNo="0" devices="vehroute_82 tripinfo_82" vType="DEFAULT_VEHTYPE" speedFactor="0.98" vaporized=""/>
    <tripinfo id="31" depart="31.00" departLane="20.0.00_0" departPos="5.10" departSpeed="0.00" departDelay="0.00" arrival="189.00" arrivalLane="23.0.00_1" arrivalPos="62.61" arrivalSpeed="10.62" duration="158.00" routeLength="490.65" waitingTime="19.00" waitingCount="18" stopTime="0.00" timeLoss="118.01" rerouteNo="0" devices="vehroute_31 tripinfo_31" vType="DEFAULT_VEHTYPE" speedFactor="0.93" vaporized=""/>
    <tripinfo id="26" depart="26.00" departLane="-31.0.00_0" departPos="5.10" departSpeed="0.00" departDelay="0.00" arrival="190.00" arrivalLane="-53.0.00_1" arrivalPos="41.01" arrivalSpeed="10.38" duration="164.00" routeLength="1051.87" waitingTime="2.00" waitingCount="2" stopTime="0.00" timeLoss="29.82" rerouteNo="0" devices="vehroute_26 tripinfo_26" vType="DEFAULT_VEHTYPE" speedFactor="0.83" vaporized=""/>
    <tripinfo id="65" depart="65.00" departLane="15.0.00_0" departPos="5.10" departSpeed="0.00" departDelay="0.00" arrival="191.00" arrivalLane="23.0.00_1" arrivalPos="62.61" arrivalSpeed="13.89" duration="126.00" routeLength="526.59" waitingTime="0.00" waitingCount="0" stopTime="0.00" timeLoss="90.25" rerouteNo="0" devices="vehroute_65 tripinfo_65" vType="DEFAULT_VEHTYPE" speedFactor="1.12" vaporized=""/>
    <tripinfo id="97" depart="97.00" departLane="0.0.00_0" departPos="5.10" departSpeed="0.00" departDelay="0.00" arrival="191.00" arrivalLane="-3.0.00_1" arrivalPos="118.05" arrivalSpeed="11.61" duration="94.00" routeLength="459.53" waitingTime="26.00" waitingCount="2" stopTime="0.00" timeLoss="53.62" rerouteNo="0" devices="vehroute_97 tripinfo_97" vType="DEFAULT_VEHTYPE" speedFactor="0.89" vaporized=""/>
    <tripinfo id="54" depart="54.00" departLane="-3.0.00_0" departPos="5.10" departSpeed="0.00" departDelay="0.00" arrival="192.00" arrivalLane="82.0.00_1" arrivalPos="48.33" arrivalSpeed="15.15" duration="138.00" routeLength="1028.03" waitingTime="18.00" waitingCount="4" stopTime="0.00" timeLoss="70.80" rerouteNo="0" devices="vehroute_54 tripinfo_54" vType="DEFAULT_VEHTYPE" speedFactor="1.17" vaporized=""/>
    <tripinfo id="91" depart="91.00" departLane="35.0.00_0" departPos="5.10" departSpeed="0.00" departDelay="0.00" arrival="192.00" arrivalLane="-23.0.00_1" arrivalPos="73.49" arrivalSpeed="13.07" duration="101.00" routeLength="375.31" waitingTime="42.00" waitingCount="4" stopTime="0.00" timeLoss="72.62" rerouteNo="0" devices="vehroute_91 tripinfo_91" vType="DEFAULT_VEHTYPE" speedFactor="1.00" vaporized=""/>
    <tripinfo id="47" depart="47.00" departLane="-48.0.00_0" departPos="5.10" departSpeed="0.00" departDelay="0.00" arrival="193.00" arrivalLane="-71.0.00_1" arrivalPos="314.88" arrivalSpeed="15.04" duration="146.00" routeLength="1035.69" waitingTime="33.00" waitingCount="4" stopTime="0.00" timeLoss="73.58" rerouteNo="0" devices="vehroute_47 tripinfo_47" vType="DEFAULT_VEHTYPE" speedFactor="1.09" vaporized=""/>
    <tripinfo id="71" depart="71.00" departLane="-62.0.00_0" departPos="5.10" departSpeed="0.00" departDelay="0.00" arrival="194.00" arrivalLane="-22.0.00_1" arrivalPos="23.56" arrivalSpeed="12.31" duration="123.00" routeLength="723.92" waitingTime="10.00" waitingCount="5" stopTime="0.00" timeLoss="31.93" rerouteNo="0" devices="vehroute_71 tripinfo_71" vType="DEFAULT_VEHTYPE" speedFactor="0.91" vaporized=""/>
    <tripinfo id="37" depart="37.00" departLane="-83.0.00_0" departPos="5.10" departSpeed="0.00" departDelay="0.00" arrival="196.00" arrivalLane="-3.0.00_0" arrivalPos="118.05" arrivalSpeed="13.79" duration="159.00" routeLength="1211.82" waitingTime="11.00" waitingCount="4" stopTime="0.00" timeLoss="70.70" rerouteNo="0" devices="vehroute_37 tripinfo_37" vType="DEFAULT_VEHTYPE" speedFactor="1.02" vaporized=""/>
    <tripinfo id="51" depart="51.00" departLane="-71.0.00_0" departPos="5.10" departSpeed="0.00" departDelay="0.00" arrival="196.00" arrivalLane="-4.0.00_1" arrivalPos="101.24" arrivalSpeed="11.79" duration="145.00" routeLength="758.58" waitingTime="44.00" waitingCount="5" stopTime="0.00" timeLoss="80.29" rerouteNo="0" devices="vehroute_51 tripinfo_51" vType="DEFAULT_VEHTYPE" speedFactor="0.88" vaporized=""/>
    <tripinfo id="9" depart="9.00" departLane="69.0.00_0" departPos="5.10" departSpeed="0.00" departDelay="0.00" arrival="197.00" arrivalLane="-18.0.00_1" arrivalPos="56.18" arrivalSpeed="10.97" duration="188.00" routeLength="1235.13" waitingTime="25.00" waitingCount="4" stopTime="0.00" timeLoss="79.47" rerouteNo="0" devices="vehroute_9 tripinfo_9" vType="DEFAULT_VEHTYPE" speedFactor="0.86" vaporized=""/>
    <tripinfo id="75" depart="75.00" departLane="4.0.00_0" departPos="5.10" departSpeed="0.00" departDelay="0.00" arrival="199.00" arrivalLane="-71.0.00_0" arrivalPos="314.88" arrivalSpeed="13.02" duration="124.00" routeLength="1065.62" waitingTime="10.00" waitingCount="2" stopTime="0.00" timeLoss="46.61" rerouteNo="0" devices="vehroute_75 tripinfo_75" vType="DEFAULT_VEHTYPE" speedFactor="1.02" vaporized=""/>
    <tripinfo id="53" depart="53.00" departLane="-83.0.00_0" departPos="5.10" departSpeed="0.00" departDelay="0.00" arrival="200.00" arrivalLane="0.0.00_1" arrivalPos="43.49" arrivalSpeed="11.84" duration="147.00" routeLength="1253.21" waitingTime="0.00" waitingCount="0" stopTime="0.00" timeLoss="24.28" rerouteNo="0" devices="vehroute_53 tripinfo_53" vType="DEFAULT_VEHTYPE" speedFactor="0.85" vaporized=""/>
    <tripinfo id="36" depart="36.00" departLane="-71.0.00_0" departPos="5.10" departSpeed="0.00" departDelay="0.00" arrival="201.00" arrivalLane="-81.0.00_1" arrivalPos="39.49" arrivalSpeed="13.57" duration="165.00" routeLength="1082.94" waitingTime="26.00" waitingCount="5" stopTime="0.00" timeLoss="85.26" rerouteNo="0" devices="vehroute_36 tripinfo_36" vType="DEFAULT_VEHTYPE" speedFactor="0.99" vaporized=""/>