<?xml version="1.0" encoding="UTF-8"?>

<!-- generated on Wed Aug 14 15:15:49 2019 by Eclipse SUMO Version 1.2.0
<configuration xmlns:xsi="http://www.w3.org/2001/XMLSchema-instance" xsi:noNamespaceSchemaLocation="http://sumo.dlr.de/xsd/sumoConfiguration.xsd">

    <input>
        <net-file value="simulations/Town03/Town03.net.xml"/>
        <route-files value="simulations/Town03/Town03.rou.xml"/>
        <additional-files value="simulations/Town03/Town03.poly.xml"/>
    </input>

    <output>
        <netstate-dump value="simulations/Town03/Town03.sumo.tr"/>
        <tripinfo-output value="simulations/Town03/Town03-output-tripinfos.xml"/>
        <vehroute-output value="simulations/Town03/Town03-output-vehroutes.xml"/>
    </output>

    <time>
        <begin value="0"/>
        <end value="1000"/>
    </time>

    <traci_server>
        <remote-port value="51565"/>
    </traci_server>

</configuration>
-->

<netstate xmlns:xsi="http://www.w3.org/2001/XMLSchema-instance" xsi:noNamespaceSchemaLocation="http://sumo.dlr.de/xsd/netstate_file.xsd">
    <timestep time="0.00">
        <edge id="-71.0.00">
            <lane id="-71.0.00_0">
                <vehicle id="manual_vehicle_0" pos="5.10" speed="0.00"/>
            </lane>
            <lane id="-71.0.00_1"/>
        </edge>
        <edge id="3.0.00">
            <lane id="3.0.00_0">
                <vehicle id="0" pos="5.10" speed="0.00"/>
            </lane>
            <lane id="3.0.00_1"/>
            <lane id="3.0.00_2"/>
        </edge>
    </timestep>
    <timestep time="1.00">
        <edge id="-71.0.00">
            <lane id="-71.0.00_0">
                <vehicle id="manual_vehicle_0" pos="7.35" speed="2.25"/>
            </lane>
            <lane id="-71.0.00_1"/>
        </edge>
        <edge id="20.0.00">
            <lane id="20.0.00_0">
                <vehicle id="1" pos="5.10" speed="0.00"/>
            </lane>
            <lane id="20.0.00_1"/>
        </edge>
        <edge id="3.0.00">
            <lane id="3.0.00_0">
                <vehicle id="0" pos="6.68" speed="1.58"/>
            </lane>
            <lane id="3.0.00_1"/>
            <lane id="3.0.00_2"/>
        </edge>
    </timestep>
    <timestep time="2.00">
        <edge id="-70.0.00">
            <lane id="-70.0.00_0">
                <vehicle id="2" pos="5.10" speed="0.00"/>
            </lane>
            <lane id="-70.0.00_1"/>
        </edge>
        <edge id="-71.0.00">
            <lane id="-71.0.00_0">
                <vehicle id="manual_vehicle_0" pos="11.46" speed="4.11"/>
            </lane>
            <lane id="-71.0.00_1"/>
        </edge>
        <edge id="20.0.00">
            <lane id="20.0.00_0"/>
            <lane id="20.0.00_1">
                <vehicle id="1" pos="6.37" speed="1.27"/>
            </lane>
        </edge>
        <edge id="3.0.00">
            <lane id="3.0.00_0">
                <vehicle id="0" pos="10.64" speed="3.96"/>
            </lane>
            <lane id="3.0.00_1"/>
            <lane id="3.0.00_2"/>
        </edge>
    </timestep>
    <timestep time="3.00">
        <edge id="-70.0.00">
            <lane id="-70.0.00_0">
                <vehicle id="2" pos="7.28" speed="2.18"/>
            </lane>
            <lane id="-70.0.00_1"/>
        </edge>
        <edge id="-71.0.00">
            <lane id="-71.0.00_0">
                <vehicle id="manual_vehicle_0" pos="17.52" speed="6.06"/>
            </lane>
            <lane id="-71.0.00_1"/>
        </edge>
        <edge id="20.0.00">
            <lane id="20.0.00_0"/>
            <lane id="20.0.00_1">
                <vehicle id="1" pos="9.85" speed="3.48"/>
            </lane>
        </edge>
        <edge id="3.0.00">
            <lane id="3.0.00_0"/>
            <lane id="3.0.00_1">
                <vehicle id="0" pos="16.20" speed="5.57"/>
            </lane>
            <lane id="3.0.00_2"/>
        </edge>
        <edge id="83.0.00">
            <lane id="83.0.00_0">
                <vehicle id="3" pos="5.10" speed="0.00"/>
            </lane>
            <lane id="83.0.00_1"/>
        </edge>
    </timestep>
    <timestep time="4.00">
        <edge id="-3.0.00">
            <lane id="-3.0.00_0">
                <vehicle id="4" pos="5.10" speed="0.00"/>
            </lane>
            <lane id="-3.0.00_1"/>
        </edge>
        <edge id="-70.0.00">
            <lane id="-70.0.00_0">
                <vehicle id="2" pos="11.90" speed="4.62"/>
            </lane>
            <lane id="-70.0.00_1"/>
        </edge>
        <edge id="-71.0.00">
            <lane id="-71.0.00_0">
                <vehicle id="manual_vehicle_0" pos="26.17" speed="8.65"/>
            </lane>
            <lane id="-71.0.00_1"/>
        </edge>
        <edge id="20.0.00">
            <lane id="20.0.00_0"/>
            <lane id="20.0.00_1">
                <vehicle id="1" pos="15.84" speed="6.00"/>
            </lane>
        </edge>
        <edge id="3.0.00">
            <lane id="3.0.00_0"/>
            <lane id="3.0.00_1">
                <vehicle id="0" pos="23.50" speed="7.30"/>
            </lane>
            <lane id="3.0.00_2"/>
        </edge>
        <edge id="73.0.00">
            <lane id="73.0.00_0">
                <vehicle id="manual_vehicle_1" pos="5.10" speed="0.00"/>
            </lane>
            <lane id="73.0.00_1"/>
            <lane id="73.0.00_2"/>
        </edge>
        <edge id="83.0.00">
            <lane id="83.0.00_0"/>
            <lane id="83.0.00_1">
                <vehicle id="3" pos="6.34" speed="1.24"/>
            </lane>
        </edge>
    </timestep>
    <timestep time="5.00">
        <edge id="-3.0.00">
            <lane id="-3.0.00_0">
                <vehicle id="4" pos="7.08" speed="1.98"/>
            </lane>
            <lane id="-3.0.00_1"/>
        </edge>
        <edge id="-70.0.00">
            <lane id="-70.0.00_0">
                <vehicle id="2" pos="18.70" speed="6.80"/>
            </lane>
            <lane id="-70.0.00_1"/>
        </edge>
        <edge id="-71.0.00">
            <lane id="-71.0.00_0">
                <vehicle id="manual_vehicle_0" pos="36.37" speed="10.20"/>
            </lane>
            <lane id="-71.0.00_1"/>
        </edge>
        <edge id="20.0.00">
            <lane id="20.0.00_0"/>
            <lane id="20.0.00_1">
                <vehicle id="1" pos="24.18" speed="8.33"/>
            </lane>
        </edge>
        <edge id="29.0.00">
            <lane id="29.0.00_0">
                <vehicle id="5" pos="5.10" speed="0.00"/>
            </lane>
            <lane id="29.0.00_1"/>
            <lane id="29.0.00_2"/>
        </edge>
        <edge id="3.0.00">
            <lane id="3.0.00_0"/>
            <lane id="3.0.00_1">
                <vehicle id="0" pos="32.30" speed="8.80"/>
            </lane>
            <lane id="3.0.00_2"/>
        </edge>
        <edge id="73.0.00">
            <lane id="73.0.00_0">
                <vehicle id="manual_vehicle_1" pos="7.09" speed="1.99"/>
            </lane>
            <lane id="73.0.00_1"/>
            <lane id="73.0.00_2"/>
        </edge>
        <edge id="83.0.00">
            <lane id="83.0.00_0"/>
            <lane id="83.0.00_1">
                <vehicle id="3" pos="9.94" speed="3.60"/>
            </lane>
        </edge>
    </timestep>
    <timestep time="6.00">
        <edge id="-2.0.00">
            <lane id="-2.0.00_0">
                <vehicle id="6" pos="5.10" speed="0.00"/>
            </lane>
            <lane id="-2.0.00_1"/>
        </edge>
        <edge id="-3.0.00">
            <lane id="-3.0.00_0">
                <vehicle id="4" pos="11.27" speed="4.19"/>
            </lane>
            <lane id="-3.0.00_1"/>
        </edge>
        <edge id="-70.0.00">
            <lane id="-70.0.00_0">
                <vehicle id="2" pos="26.89" speed="8.19"/>
            </lane>
            <lane id="-70.0.00_1"/>
        </edge>
        <edge id="-71.0.00">
            <lane id="-71.0.00_0">
                <vehicle id="manual_vehicle_0" pos="47.97" speed="11.60"/>
            </lane>
            <lane id="-71.0.00_1"/>
        </edge>
        <edge id="20.0.00">
            <lane id="20.0.00_0"/>
            <lane id="20.0.00_1">
                <vehicle id="1" pos="34.80" speed="10.62"/>
            </lane>
        </edge>
        <edge id="29.0.00">
            <lane id="29.0.00_0">
                <vehicle id="5" pos="6.50" speed="1.40"/>
            </lane>
            <lane id="29.0.00_1"/>
            <lane id="29.0.00_2"/>
        </edge>
        <edge id="3.0.00">
            <lane id="3.0.00_0"/>
            <lane id="3.0.00_1">
                <vehicle id="0" pos="43.69" speed="11.39"/>
            </lane>
            <lane id="3.0.00_2"/>
        </edge>
        <edge id="73.0.00">
            <lane id="73.0.00_0">
                <vehicle id="manual_vehicle_1" pos="10.52" speed="3.43"/>
            </lane>
            <lane id="73.0.00_1"/>
            <lane id="73.0.00_2"/>
        </edge>
        <edge id="83.0.00">
            <lane id="83.0.00_0"/>
            <lane id="83.0.00_1">
                <vehicle id="3" pos="14.91" speed="4.97"/>
            </lane>
        </edge>
    </timestep>
    <timestep time="7.00">
        <edge id="-2.0.00">
            <lane id="-2.0.00_0">
                <vehicle id="6" pos="7.43" speed="2.33"/>
            </lane>
            <lane id="-2.0.00_1"/>
        </edge>
        <edge id="-3.0.00">
            <lane id="-3.0.00_0">
                <vehicle id="4" pos="16.79" speed="5.52"/>
            </lane>
            <lane id="-3.0.00_1"/>
        </edge>
        <edge id="-70.0.00">
            <lane id="-70.0.00_0">
                <vehicle id="2" pos="34.87" speed="7.98"/>
            </lane>
            <lane id="-70.0.00_1"/>
        </edge>
        <edge id="-71.0.00">
            <lane id="-71.0.00_0">
                <vehicle id="manual_vehicle_0" pos="60.97" speed="13.00"/>
            </lane>
            <lane id="-71.0.00_1"/>
        </edge>
        <edge id="-83.0.00">
            <lane id="-83.0.00_0">
                <vehicle id="7" pos="5.10" speed="0.00"/>
            </lane>
            <lane id="-83.0.00_1"/>
        </edge>
        <edge id="20.0.00">
            <lane id="20.0.00_0"/>
            <lane id="20.0.00_1">
                <vehicle id="1" pos="47.05" speed="12.25"/>
            </lane>
        </edge>
        <edge id="29.0.00">
            <lane id="29.0.00_0">
                <vehicle id="5" pos="9.93" speed="3.44"/>
            </lane>
            <lane id="29.0.00_1"/>
            <lane id="29.0.00_2"/>
        </edge>
        <edge id="3.0.00">
            <lane id="3.0.00_0"/>
            <lane id="3.0.00_1">
                <vehicle id="0" pos="57.48" speed="13.79"/>
            </lane>
            <lane id="3.0.00_2"/>
        </edge>
        <edge id="73.0.00">
            <lane id="73.0.00_0">
                <vehicle id="manual_vehicle_1" pos="16.38" speed="5.86"/>
            </lane>
            <lane id="73.0.00_1"/>
            <lane id="73.0.00_2"/>
        </edge>
        <edge id="83.0.00">
            <lane id="83.0.00_0"/>
            <lane id="83.0.00_1">
                <vehicle id="3" pos="21.49" speed="6.58"/>
            </lane>
        </edge>
    </timestep>
    <timestep time="8.00">
        <edge id=":246_0">
            <lane id=":246_0_0">
                <vehicle id="2" pos="7.77" speed="8.18"/>
            </lane>
        </edge>
        <edge id="-2.0.00">
            <lane id="-2.0.00_0">
                <vehicle id="6" pos="11.12" speed="3.69"/>
            </lane>
            <lane id="-2.0.00_1"/>
        </edge>
        <edge id="-3.0.00">
            <lane id="-3.0.00_0">
                <vehicle id="4" pos="24.12" speed="7.33"/>
            </lane>
            <lane id="-3.0.00_1"/>
        </edge>
        <edge id="-71.0.00">
            <lane id="-71.0.00_0">
                <vehicle id="manual_vehicle_0" pos="75.22" speed="14.25"/>
            </lane>
            <lane id="-71.0.00_1"/>
        </edge>
        <edge id="-83.0.00">
            <lane id="-83.0.00_0"/>
            <lane id="-83.0.00_1">
                <vehicle id="7" pos="6.04" speed="0.94"/>
            </lane>
        </edge>
        <edge id="20.0.00">
            <lane id="20.0.00_0"/>
            <lane id="20.0.00_1">
                <vehicle id="1" pos="59.22" speed="12.18"/>
            </lane>
        </edge>
        <edge id="29.0.00">
            <lane id="29.0.00_0">
                <vehicle id="5" pos="15.48" speed="5.54"/>
            </lane>
            <lane id="29.0.00_1"/>
            <lane id="29.0.00_2"/>
        </edge>
        <edge id="3.0.00">
            <lane id="3.0.00_0"/>
            <lane id="3.0.00_1">
                <vehicle id="0" pos="71.89" speed="14.41"/>
            </lane>
            <lane id="3.0.00_2"/>
        </edge>
        <edge id="73.0.00">
            <lane id="73.0.00_0">
                <vehicle id="8" pos="5.10" speed="0.00"/>
                <vehicle id="manual_vehicle_1" pos="14.28" speed="2.22"/>
            </lane>
            <lane id="73.0.00_1"/>
            <lane id="73.0.00_2"/>
        </edge>
        <edge id="83.0.00">
            <lane id="83.0.00_0"/>
            <lane id="83.0.00_1">
                <vehicle id="3" pos="29.80" speed="8.31"/>
            </lane>
        </edge>
    </timestep>
    <timestep time="9.00">
        <edge id="-2.0.00">
            <lane id="-2.0.00_0">
                <vehicle id="6" pos="16.19" speed="5.07"/>
            </lane>
            <lane id="-2.0.00_1"/>
        </edge>
        <edge id="-3.0.00">
            <lane id="-3.0.00_0">
                <vehicle id="4" pos="32.89" speed="8.77"/>
            </lane>
            <lane id="-3.0.00_1"/>
        </edge>
        <edge id="-53.0.00">
            <lane id="-53.0.00_0"/>
            <lane id="-53.0.00_1">
                <vehicle id="2" pos="1.12" speed="8.29"/>
            </lane>
        </edge>
        <edge id="-71.0.00">
            <lane id="-71.0.00_0">
                <vehicle id="manual_vehicle_0" pos="89.50" speed="14.28"/>
            </lane>
            <lane id="-71.0.00_1"/>
        </edge>
        <edge id="-83.0.00">
            <lane id="-83.0.00_0"/>
            <lane id="-83.0.00_1">
                <vehicle id="7" pos="8.29" speed="2.26"/>
            </lane>
        </edge>
        <edge id="20.0.00">
            <lane id="20.0.00_0"/>
            <lane id="20.0.00_1">
                <vehicle id="1" pos="71.79" speed="12.57"/>
            </lane>
        </edge>
        <edge id="29.0.00">
            <lane id="29.0.00_0">
                <vehicle id="5" pos="22.60" speed="7.12"/>
            </lane>
            <lane id="29.0.00_1"/>
            <lane id="29.0.00_2"/>
        </edge>
        <edge id="3.0.00">
            <lane id="3.0.00_0"/>
            <lane id="3.0.00_1">
                <vehicle id="0" pos="86.43" speed="14.54"/>
            </lane>
            <lane id="3.0.00_2"/>
        </edge>
        <edge id="69.0.00">
            <lane id="69.0.00_0">
                <vehicle id="9" pos="5.10" speed="0.00"/>
            </lane>
            <lane id="69.0.00_1"/>
            <lane id="69.0.00_2"/>
        </edge>
        <edge id="73.0.00">
            <lane id="73.0.00_0">
                <vehicle id="8" pos="6.19" speed="1.09"/>
                <vehicle id="manual_vehicle_1" pos="18.81" speed="4.53"/>
            </lane>
            <lane id="73.0.00_1"/>
            <lane id="73.0.00_2"/>
        </edge>
        <edge id="83.0.00">
            <lane id="83.0.00_0"/>
            <lane id="83.0.00_1">
                <vehicle id="3" pos="39.85" speed="10.05"/>
            </lane>
        </edge>
    </timestep>
    <timestep time="10.00">
        <edge id="-2.0.00">
            <lane id="-2.0.00_0">
                <vehicle id="6" pos="23.50" speed="7.31"/>
            </lane>
            <lane id="-2.0.00_1"/>
        </edge>
        <edge id="-3.0.00">
            <lane id="-3.0.00_0">
                <vehicle id="4" pos="43.83" speed="10.93"/>
            </lane>
            <lane id="-3.0.00_1"/>
        </edge>
        <edge id="-53.0.00">
            <lane id="-53.0.00_0"/>
            <lane id="-53.0.00_1">
                <vehicle id="2" pos="11.38" speed="10.25"/>
            </lane>
        </edge>
        <edge id="-7.0.00">
            <lane id="-7.0.00_0">
                <vehicle id="10" pos="5.10" speed="0.00"/>
            </lane>
            <lane id="-7.0.00_1"/>
            <lane id="-7.0.00_2"/>
        </edge>
        <edge id="-71.0.00">
            <lane id="-71.0.00_0">
                <vehicle id="manual_vehicle_0" pos="103.26" speed="13.76"/>
            </lane>
            <lane id="-71.0.00_1"/>
        </edge>
        <edge id="-83.0.00">
            <lane id="-83.0.00_0"/>
            <lane id="-83.0.00_1">
                <vehicle id="7" pos="13.05" speed="4.76"/>
            </lane>
        </edge>
        <edge id="20.0.00">
            <lane id="20.0.00_0"/>
            <lane id="20.0.00_1">
                <vehicle id="1" pos="84.37" speed="12.57"/>
            </lane>
        </edge>
        <edge id="29.0.00">
            <lane id="29.0.00_0">
                <vehicle id="5" pos="31.85" speed="9.25"/>
            </lane>
            <lane id="29.0.00_1"/>
            <lane id="29.0.00_2"/>
        </edge>
        <edge id="3.0.00">
            <lane id="3.0.00_0"/>
            <lane id="3.0.00_1">
                <vehicle id="0" pos="100.60" speed="14.17"/>
            </lane>
            <lane id="3.0.00_2"/>
        </edge>
        <edge id="69.0.00">
            <lane id="69.0.00_0">
                <vehicle id="9" pos="7.11" speed="2.01"/>
            </lane>
            <lane id="69.0.00_1"/>
            <lane id="69.0.00_2"/>
        </edge>
        <edge id="73.0.00">
            <lane id="73.0.00_0">
                <vehicle id="8" pos="9.19" speed="3.00"/>
                <vehicle id="manual_vehicle_1" pos="25.63" speed="6.82"/>
            </lane>
            <lane id="73.0.00_1"/>
            <lane id="73.0.00_2"/>
        </edge>
        <edge id="83.0.00">
            <lane id="83.0.00_0"/>
            <lane id="83.0.00_1">
                <vehicle id="3" pos="52.17" speed="12.32"/>
            </lane>
        </edge>
    </timestep>
    <timestep time="11.00">
        <edge id="-2.0.00">
            <lane id="-2.0.00_0">
                <vehicle id="6" pos="32.87" speed="9.37"/>
            </lane>
            <lane id="-2.0.00_1"/>
        </edge>
        <edge id="-3.0.00">
            <lane id="-3.0.00_0">
                <vehicle id="4" pos="57.23" speed="13.40"/>
            </lane>
            <lane id="-3.0.00_1"/>
        </edge>
        <edge id="-53.0.00">
            <lane id="-53.0.00_0"/>
            <lane id="-53.0.00_1">
                <vehicle id="2" pos="24.11" speed="12.74"/>
            </lane>
        </edge>
        <edge id="-7.0.00">
            <lane id="-7.0.00_0"/>
            <lane id="-7.0.00_1">
                <vehicle id="10" pos="6.05" speed="0.95"/>
            </lane>
            <lane id="-7.0.00_2"/>
        </edge>
        <edge id="-71.0.00">
            <lane id="-71.0.00_0">
                <vehicle id="manual_vehicle_0" pos="116.69" speed="13.44"/>
            </lane>
            <lane id="-71.0.00_1"/>
        </edge>
        <edge id="-83.0.00">
            <lane id="-83.0.00_0"/>
            <lane id="-83.0.00_1">
                <vehicle id="7" pos="20.07" speed="7.02"/>
            </lane>
        </edge>
        <edge id="20.0.00">
            <lane id="20.0.00_0"/>
            <lane id="20.0.00_1">
                <vehicle id="1" pos="96.54" speed="12.18"/>
            </lane>
        </edge>
        <edge id="29.0.00">
            <lane id="29.0.00_0">
                <vehicle id="5" pos="42.46" speed="10.61"/>
            </lane>
            <lane id="29.0.00_1"/>
            <lane id="29.0.00_2"/>
        </edge>
        <edge id="3.0.00">
            <lane id="3.0.00_0"/>
            <lane id="3.0.00_1">
                <vehicle id="0" pos="114.01" speed="13.42"/>
            </lane>
            <lane id="3.0.00_2"/>
        </edge>
        <edge id="69.0.00">
            <lane id="69.0.00_0">
                <vehicle id="9" pos="10.95" speed="3.84"/>
            </lane>
            <lane id="69.0.00_1"/>
            <lane id="69.0.00_2"/>
        </edge>
        <edge id="73.0.00">
            <lane id="73.0.00_0">
                <vehicle id="manual_vehicle_1" pos="23.37" speed="2.38"/>
            </lane>
            <lane id="73.0.00_1">
                <vehicle id="8" pos="14.37" speed="5.18"/>
            </lane>
            <lane id="73.0.00_2"/>
        </edge>
        <edge id="83.0.00">
            <lane id="83.0.00_0">
                <vehicle id="11" pos="5.10" speed="0.00"/>
            </lane>
            <lane id="83.0.00_1">
                <vehicle id="3" pos="66.54" speed="14.37"/>
            </lane>
        </edge>
    </timestep>
    <timestep time="12.00">
        <edge id=":159_8">
            <lane id=":159_8_0">
                <vehicle id="0" pos="5.17" speed="9.20"/>
            </lane>
        </edge>
        <edge id="-2.0.00">
            <lane id="-2.0.00_0">
                <vehicle id="6" pos="44.02" speed="11.15"/>
            </lane>
            <lane id="-2.0.00_1"/>
        </edge>
        <edge id="-3.0.00">
            <lane id="-3.0.00_0">
                <vehicle id="4" pos="70.45" speed="13.22"/>
            </lane>
            <lane id="-3.0.00_1"/>
        </edge>
        <edge id="-48.0.00">
            <lane id="-48.0.00_0">
                <vehicle id="12" pos="5.10" speed="0.00"/>
            </lane>
            <lane id="-48.0.00_1"/>
        </edge>
        <edge id="-53.0.00">
            <lane id="-53.0.00_0"/>
            <lane id="-53.0.00_1">
                <vehicle id="2" pos="36.93" speed="12.82"/>
            </lane>
        </edge>
        <edge id="-7.0.00">
            <lane id="-7.0.00_0"/>
            <lane id="-7.0.00_1"/>
            <lane id="-7.0.00_2">
                <vehicle id="10" pos="9.08" speed="3.03"/>
            </lane>
        </edge>
        <edge id="-71.0.00">
            <lane id="-71.0.00_0">
                <vehicle id="manual_vehicle_0" pos="131.19" speed="14.49"/>
            </lane>
            <lane id="-71.0.00_1"/>
        </edge>
        <edge id="-83.0.00">
            <lane id="-83.0.00_0"/>
            <lane id="-83.0.00_1">
                <vehicle id="7" pos="28.89" speed="8.81"/>
            </lane>
        </edge>
        <edge id="20.0.00">
            <lane id="20.0.00_0"/>
            <lane id="20.0.00_1">
                <vehicle id="1" pos="108.60" speed="12.06"/>
            </lane>
        </edge>
        <edge id="29.0.00">
            <lane id="29.0.00_0">
                <vehicle id="5" pos="53.32" speed="10.86"/>
            </lane>
            <lane id="29.0.00_1"/>
            <lane id="29.0.00_2"/>
        </edge>
        <edge id="69.0.00">
            <lane id="69.0.00_0">
                <vehicle id="9" pos="16.32" speed="5.37"/>
            </lane>
            <lane id="69.0.00_1"/>
            <lane id="69.0.00_2"/>
        </edge>
        <edge id="73.0.00">
            <lane id="73.0.00_0">
                <vehicle id="manual_vehicle_1" pos="28.06" speed="4.68"/>
            </lane>
            <lane id="73.0.00_1">
                <vehicle id="8" pos="20.85" speed="6.48"/>
            </lane>
            <lane id="73.0.00_2"/>
        </edge>
        <edge id="83.0.00">
            <lane id="83.0.00_0">
                <vehicle id="11" pos="5.87" speed="0.77"/>
            </lane>
            <lane id="83.0.00_1">
                <vehicle id="3" pos="81.29" speed="14.76"/>
            </lane>
        </edge>
    </timestep>
    <timestep time="13.00">
        <edge id=":159_8">
            <lane id=":159_8_0">
                <vehicle id="0" pos="9.87" speed="4.70"/>
            </lane>
        </edge>
        <edge id=":189_0">
            <lane id=":189_0_0">
                <vehicle id="2" pos="9.74" speed="13.82"/>
            </lane>
        </edge>
        <edge id="-2.0.00">
            <lane id="-2.0.00_0"/>
            <lane id="-2.0.00_1">
                <vehicle id="6" pos="57.74" speed="13.72"/>
            </lane>
        </edge>
        <edge id="-3.0.00">
            <lane id="-3.0.00_0">
                <vehicle id="4" pos="84.40" speed="13.96"/>
            </lane>
            <lane id="-3.0.00_1"/>
        </edge>
        <edge id="-48.0.00">
            <lane id="-48.0.00_0"/>
            <lane id="-48.0.00_1">
                <vehicle id="12" pos="6.41" speed="1.31"/>
            </lane>
        </edge>
        <edge id="-7.0.00">
            <lane id="-7.0.00_0"/>
            <lane id="-7.0.00_1"/>
            <lane id="-7.0.00_2">
                <vehicle id="10" pos="13.63" speed="4.55"/>
            </lane>
        </edge>
        <edge id="-71.0.00">
            <lane id="-71.0.00_0">
                <vehicle id="manual_vehicle_0" pos="145.28" speed="14.10"/>
            </lane>
            <lane id="-71.0.00_1"/>
        </edge>
        <edge id="-8.0.00">
            <lane id="-8.0.00_0">
                <vehicle id="13" pos="5.10" speed="0.00"/>
            </lane>
            <lane id="-8.0.00_1"/>
        </edge>
        <edge id="-83.0.00">
            <lane id="-83.0.00_0"/>
            <lane id="-83.0.00_1">
                <vehicle id="7" pos="39.94" speed="11.05"/>
            </lane>
        </edge>
        <edge id="20.0.00">
            <lane id="20.0.00_0"/>
            <lane id="20.0.00_1">
                <vehicle id="1" pos="121.21" speed="12.61"/>
            </lane>
        </edge>
        <edge id="29.0.00">
            <lane id="29.0.00_0">
                <vehicle id="5" pos="63.67" speed="10.35"/>
            </lane>
            <lane id="29.0.00_1"/>
            <lane id="29.0.00_2"/>
        </edge>
        <edge id="69.0.00">
            <lane id="69.0.00_0">
                <vehicle id="9" pos="24.12" speed="7.80"/>
            </lane>
            <lane id="69.0.00_1"/>
            <lane id="69.0.00_2"/>
        </edge>
        <edge id="73.0.00">
            <lane id="73.0.00_0">
                <vehicle id="manual_vehicle_1" pos="35.17" speed="7.11"/>
            </lane>
            <lane id="73.0.00_1">
                <vehicle id="8" pos="28.99" speed="8.14"/>
            </lane>
            <lane id="73.0.00_2"/>
        </edge>
        <edge id="83.0.00">
            <lane id="83.0.00_0"/>
            <lane id="83.0.00_1">
                <vehicle id="11" pos="7.01" speed="1.13"/>
                <vehicle id="3" pos="96.18" speed="14.88"/>
            </lane>
        </edge>
    </timestep>
    <timestep time="14.00">
        <edge id=":159_12">
            <lane id=":159_12_0">
                <vehicle id="0" pos="4.03" speed="6.03"/>
            </lane>
        </edge>
        <edge id="-2.0.00">
            <lane id="-2.0.00_0"/>
            <lane id="-2.0.00_1">
                <vehicle id="6" pos="71.46" speed="13.72"/>
            </lane>
        </edge>
        <edge id="-3.0.00">
            <lane id="-3.0.00_0">
                <vehicle id="4" pos="98.38" speed="13.97"/>
            </lane>
            <lane id="-3.0.00_1"/>
        </edge>
        <edge id="-48.0.00">
            <lane id="-48.0.00_0"/>
            <lane id="-48.0.00_1">
                <vehicle id="12" pos="9.75" speed="3.34"/>
            </lane>
        </edge>
        <edge id="-54.0.00">
            <lane id="-54.0.00_0"/>
            <lane id="-54.0.00_1">
                <vehicle id="2" pos="1.40" speed="13.76"/>
            </lane>
        </edge>
        <edge id="-7.0.00">
            <lane id="-7.0.00_0"/>
            <lane id="-7.0.00_1"/>
            <lane id="-7.0.00_2">
                <vehicle id="10" pos="20.36" speed="6.73"/>
            </lane>
        </edge>
        <edge id="-71.0.00">
            <lane id="-71.0.00_0">
                <vehicle id="manual_vehicle_0" pos="159.78" speed="14.50"/>
            </lane>
            <lane id="-71.0.00_1"/>
        </edge>
        <edge id="-8.0.00">
            <lane id="-8.0.00_0"/>
            <lane id="-8.0.00_1">
                <vehicle id="13" pos="7.65" speed="2.55"/>
            </lane>
        </edge>
        <edge id="-83.0.00">
            <lane id="-83.0.00_0"/>
            <lane id="-83.0.00_1">
                <vehicle id="7" pos="52.23" speed="12.29"/>
            </lane>
        </edge>
        <edge id="20.0.00">
            <lane id="20.0.00_0"/>
            <lane id="20.0.00_1">
                <vehicle id="1" pos="133.09" speed="11.88"/>
            </lane>
        </edge>
        <edge id="29.0.00">
            <lane id="29.0.00_0">
                <vehicle id="5" pos="74.19" speed="10.52"/>
            </lane>
            <lane id="29.0.00_1"/>
            <lane id="29.0.00_2"/>
        </edge>
        <edge id="69.0.00">
            <lane id="69.0.00_0">
                <vehicle id="14" pos="5.10" speed="0.00"/>
                <vehicle id="9" pos="33.36" speed="9.24"/>
            </lane>
            <lane id="69.0.00_1"/>
            <lane id="69.0.00_2"/>
        </edge>
        <edge id="73.0.00">
            <lane id="73.0.00_0">
                <vehicle id="manual_vehicle_1" pos="32.99" speed="2.31"/>
            </lane>
            <lane id="73.0.00_1">
                <vehicle id="8" pos="39.10" speed="10.11"/>
            </lane>
            <lane id="73.0.00_2"/>
        </edge>
        <edge id="83.0.00">
            <lane id="83.0.00_0"/>
            <lane id="83.0.00_1">
                <vehicle id="11" pos="9.44" speed="2.44"/>