<?xml version="1.0" encoding="UTF-8"?>

<!-- generated on 2019年10月11日 星期五 09时11分34秒 by Eclipse SUMO GUI Version 1.3.1
<configuration xmlns:xsi="http://www.w3.org/2001/XMLSchema-instance" xsi:noNamespaceSchemaLocation="http://sumo.dlr.de/xsd/sumoConfiguration.xsd">

    <input>
        <net-file value="simulations/Town03/Town03.net.xml"/>
        <route-files value="simulations/Town03/Town03.rou.xml"/>
        <additional-files value="simulations/Town03/Town03.poly.xml"/>
    </input>

    <output>
        <netstate-dump value="simulations/Town03/Town03.sumo.tr"/>
        <tripinfo-output value="simulations/Town03/Town03-output-tripinfos.xml"/>
        <vehroute-output value="simulations/Town03/Town03-output-vehroutes.xml"/>
    </output>

    <time>
        <begin value="0"/>
        <end value="1000"/>
    </time>

    <traci_server>
        <remote-port value="54055"/>
    </traci_server>

</configuration>
-->

<tripinfos xmlns:xsi="http://www.w3.org/2001/XMLSchema-instance" xsi:noNamespaceSchemaLocation="http://sumo.dlr.de/xsd/tripinfo_file.xsd">
    <tripinfo id="manual_vehicle_2" depart="8.00" departLane="-7.0.00_0" departPos="5.10" departSpeed="0.00" departDelay="0.00" arrival="76.00" arrivalLane="-29.0.00_0" arrivalPos="78.53" arrivalSpeed="8.68" duration="68.00" routeLength="1364.13" waitingTime="0.00" waitingCount="0" stopTime="0.00" timeLoss="7.56" rerouteNo="0" devices="vehroute_manual_vehicle_2 tripinfo_manual_vehicle_2" vType="DEFAULT_VEHTYPE" speedFactor="1.01" vaporized=""/>
    <tripinfo id="manual_vehicle_1" depart="4.00" departLane="-8.0.00_0" departPos="5.10" departSpeed="0.00" departDelay="0.00" arrival="138.00" arrivalLane="-69.0.00_0" arrivalPos="235.29" arrivalSpeed="12.66" duration="134.00" routeLength="2367.07" waitingTime="0.00" waitingCount="0" stopTime="0.00" timeLoss="17.34" rerouteNo="0" devices="vehroute_manual_vehicle_1 tripinfo_manual_vehicle_1" vType="DEFAULT_VEHTYPE" speedFactor="0.94" vaporized=""/>
    <tripinfo id="manual_vehicle_0" depart="0.00" departLane="83.0.00_0" departPos="5.10" departSpeed="0.00" departDelay="0.00" arrival="484.00" arrivalLane="1.0.00_0" arrivalPos="49.80" arrivalSpeed="4.43" duration="484.00" routeLength="18845.98" waitingTime="63.00" waitingCount="63" stopTime="0.00" timeLoss="238.31" rerouteNo="0" devices="vehroute_manual_vehicle_0 tripinfo_manual_vehicle_0" vType="DEFAULT_VEHTYPE" speedFactor="1.06" vaporized=""/>
