<?xml version="1.0" encoding="UTF-8"?>

<!-- generated on 12/01/19 18:49:28 by Eclipse SUMO GUI Version 1.3.1
<configuration xmlns:xsi="http://www.w3.org/2001/XMLSchema-instance" xsi:noNamespaceSchemaLocation="http://sumo.dlr.de/xsd/sumoConfiguration.xsd">

    <input>
        <net-file value="simulations/Town03/Town03.net.xml"/>
        <route-files value="simulations/Town03/Town03.rou.xml"/>
        <additional-files value="simulations/Town03/Town03.poly.xml"/>
    </input>

    <output>
        <netstate-dump value="simulations/Town03/Town03.sumo.tr"/>
        <tripinfo-output value="simulations/Town03/Town03-output-tripinfos.xml"/>
        <vehroute-output value="simulations/Town03/Town03-output-vehroutes.xml"/>
    </output>

    <time>
        <begin value="0"/>
        <end value="1000"/>
    </time>

    <traci_server>
        <remote-port value="50373"/>
    </traci_server>

</configuration>
-->

<tripinfos xmlns:xsi="http://www.w3.org/2001/XMLSchema-instance" xsi:noNamespaceSchemaLocation="http://sumo.dlr.de/xsd/tripinfo_file.xsd">
    <tripinfo id="manual_vehicle_0" depart="0.00" departLane="-70.0.00_0" departPos="5.10" departSpeed="0.00" departDelay="0.00" arrival="55.00" arrivalLane="-62.0.00_1" arrivalPos="76.33" arrivalSpeed="13.71" duration="55.00" routeLength="1446.48" waitingTime="0.00" waitingCount="0" stopTime="0.00" timeLoss="22.41" rerouteNo="0" devices="vehroute_manual_vehicle_0 tripinfo_manual_vehicle_0" vType="DEFAULT_VEHTYPE" speedFactor="1.06" vaporized=""/>
    <tripinfo id="manual_vehicle_2" depart="71.00" departLane="-7.0.00_0" departPos="5.10" departSpeed="0.00" departDelay="0.00" arrival="150.00" arrivalLane="-29.0.00_0" arrivalPos="78.53" arrivalSpeed="14.01" duration="79.00" routeLength="1391.74" waitingTime="0.00" waitingCount="0" stopTime="0.00" timeLoss="6.15" rerouteNo="0" devices="vehroute_manual_vehicle_2 tripinfo_manual_vehicle_2" vType="DEFAULT_VEHTYPE" speedFactor="1.01" vaporized=""/>
    <tripinfo id="manual_vehicle_1" depart="43.00" departLane="-83.0.00_0" departPos="5.10" departSpeed="0.00" departDelay="0.00" arrival="214.00" arrivalLane="23.0.00_1" arrivalPos="62.61" arrivalSpeed="12.46" duration="171.00" routeLength="6967.26" waitingTime="0.00" waitingCount="0" stopTime="0.00" timeLoss="27.81" rerouteNo="0" devices="vehroute_manual_vehicle_1 tripinfo_manual_vehicle_1" vType="DEFAULT_VEHTYPE" speedFactor="0.94" vaporized=""/>
    <tripinfo id="manual_vehicle_3" depart="78.00" departLane="-2.0.00_0" departPos="5.10" departSpeed="0.00" departDelay="0.00" arrival="352.00" arrivalLane="-18.0.00_1" arrivalPos="56.18" arrivalSpeed="14.84" duration="274.00" routeLength="11367.42" waitingTime="5.00" waitingCount="5" stopTime="0.00" timeLoss="81.72" rerouteNo="0" devices="vehroute_manual_vehicle_3 tripinfo_manual_vehicle_3" vType="DEFAULT_VEHTYPE" speedFactor="1.08" vaporized=""/>
    <tripinfo id="manual_vehicle_5" depart="377.00" departLane="-70.0.00_0" departPos="5.10" departSpeed="0.00" departDelay="0.00" arrival="417.00" arrivalLane="-62.0.00_1" arrivalPos="76.33" arrivalSpeed="10.53" duration="40.00" routeLength="516.42" waitingTime="0.00" waitingCount="0" stopTime="0.00" timeLoss="6.32" rerouteNo="0" devices="vehroute_manual_vehicle_5 tripinfo_manual_vehicle_5" vType="DEFAULT_VEHTYPE" speedFactor="0.83" vaporized=""/>
    <tripinfo id="manual_vehicle_4" depart="106.00" departLane="-2.0.00_0" departPos="5.10" departSpeed="0.00" departDelay="0.00" arrival="450.00" arrivalLane="-18.0.00_1" arrivalPos="56.18" arrivalSpeed="13.07" duration="344.00" routeLength="13287.75" waitingTime="5.00" waitingCount="5" stopTime="0.00" timeLoss="112.63" rerouteNo="0" devices="vehroute_manual_vehicle_4 tripinfo_manual_vehicle_4" vType="DEFAULT_VEHTYPE" speedFactor="1.03" vaporized=""/>
    <tripinfo id="manual_vehicle_6" depart="420.00" departLane="20.0.00_0" departPos="5.10" departSpeed="0.00" departDelay="0.00" arrival="612.00" arrivalLane="81.0.00_1" arrivalPos="39.49" arrivalSpeed="13.95" duration="192.00" routeLength="6464.07" waitingTime="0.00" waitingCount="0" stopTime="0.00" timeLoss="59.89" rerouteNo="0" devices="vehroute_manual_vehicle_6 tripinfo_manual_vehicle_6" vType="DEFAULT_VEHTYPE" speedFactor="1.05" vaporized=""/>
    <tripinfo id="manual_vehicle_7" depart="487.00" departLane="-83.0.00_0" departPos="5.10" departSpeed="0.00" departDelay="0.00" arrival="675.00" arrivalLane="23.0.00_1" arrivalPos="62.61" arrivalSpeed="12.05" duration="188.00" routeLength="4942.60" waitingTime="0.00" waitingCount="0" stopTime="0.00" timeLoss="18.75" rerouteNo="0" devices="vehroute_manual_vehicle_7 tripinfo_manual_vehicle_7" vType="DEFAULT_VEHTYPE" speedFactor="0.89" vaporized=""/>
    <tripinfo id="manual_vehicle_9" depart="498.00" departLane="20.0.00_0" departPos="5.10" departSpeed="0.00" departDelay="0.00" arrival="700.00" arrivalLane="81.0.00_1" arrivalPos="39.49" arrivalSpeed="10.64" duration="202.00" routeLength="4539.54" waitingTime="0.00" waitingCount="0" stopTime="0.00" timeLoss="33.18" rerouteNo="0" devices="vehroute_manual_vehicle_9 tripinfo_manual_vehicle_9" vType="DEFAULT_VEHTYPE" speedFactor="0.86" vaporized=""/>
    <tripinfo id="manual_vehicle_10" depart="631.00" departLane="-70.0.00_0" departPos="5.10" departSpeed="0.00" departDelay="0.00" arrival="703.00" arrivalLane="-62.0.00_1" arrivalPos="76.33" arrivalSpeed="15.12" duration="72.00" routeLength="1482.65" waitingTime="0.00" waitingCount="0" stopTime="0.00" timeLoss="8.11" rerouteNo="0" devices="vehroute_manual_vehicle_10 tripinfo_manual_vehicle_10" vType="DEFAULT_VEHTYPE" speedFactor="1.09" vaporized=""/>
