<?xml version="1.0" encoding="UTF-8"?>

<!-- generated on 2019年10月09日 星期三 10时44分12秒 by Eclipse SUMO GUI Version 1.3.1
<configuration xmlns:xsi="http://www.w3.org/2001/XMLSchema-instance" xsi:noNamespaceSchemaLocation="http://sumo.dlr.de/xsd/sumoConfiguration.xsd">

    <input>
        <net-file value="simulations/Town03/Town03.net.xml"/>
        <route-files value="simulations/Town03/Town03.rou.xml"/>
        <additional-files value="simulations/Town03/Town03.poly.xml"/>
    </input>

    <output>
        <netstate-dump value="simulations/Town03/Town03.sumo.tr"/>
        <tripinfo-output value="simulations/Town03/Town03-output-tripinfos.xml"/>
        <vehroute-output value="simulations/Town03/Town03-output-vehroutes.xml"/>
    </output>

    <time>
        <begin value="0"/>
        <end value="1000"/>
    </time>

    <traci_server>
        <remote-port value="46659"/>
    </traci_server>

</configuration>
-->

<tripinfos xmlns:xsi="http://www.w3.org/2001/XMLSchema-instance" xsi:noNamespaceSchemaLocation="http://sumo.dlr.de/xsd/tripinfo_file.xsd">
    <tripinfo id="manual_vehicle_1" depart="4.00" departLane="-3.0.00_0" departPos="5.10" departSpeed="0.00" departDelay="0.00" arrival="49.00" arrivalLane="-64.0.00_0" arrivalPos="40.44" arrivalSpeed="12.23" duration="45.00" routeLength="1527.57" waitingTime="0.00" waitingCount="0" stopTime="0.00" timeLoss="9.62" rerouteNo="0" devices="vehroute_manual_vehicle_1 tripinfo_manual_vehicle_1" vType="DEFAULT_VEHTYPE" speedFactor="0.94" vaporized=""/>
    <tripinfo id="manual_vehicle_2" depart="8.00" departLane="-8.0.00_0" departPos="5.10" departSpeed="0.00" departDelay="0.00" arrival="300.00" arrivalLane="-69.0.00_0" arrivalPos="235.29" arrivalSpeed="12.74" duration="292.00" routeLength="10370.11" waitingTime="3.00" waitingCount="3" stopTime="0.00" timeLoss="80.94" rerouteNo="0" devices="vehroute_manual_vehicle_2 tripinfo_manual_vehicle_2" vType="DEFAULT_VEHTYPE" speedFactor="1.01" vaporized=""/>
    <tripinfo id="manual_vehicle_0" depart="0.00" departLane="20.0.00_0" departPos="5.10" departSpeed="0.00" departDelay="0.00" arrival="368.00" arrivalLane="81.0.00_1" arrivalPos="39.49" arrivalSpeed="5.85" duration="368.00" routeLength="16439.26" waitingTime="0.00" waitingCount="0" stopTime="0.00" timeLoss="133.36" rerouteNo="0" devices="vehroute_manual_vehicle_0 tripinfo_manual_vehicle_0" vType="DEFAULT_VEHTYPE" speedFactor="1.06" vaporized=""/>
