<?xml version="1.0" encoding="UTF-8"?>

<!-- generated on Thu Jun 27 21:58:57 2019 by Eclipse SUMO Version 1.2.0
<configuration xmlns:xsi="http://www.w3.org/2001/XMLSchema-instance" xsi:noNamespaceSchemaLocation="http://sumo.dlr.de/xsd/sumoConfiguration.xsd">

    <input>
        <net-file value="simulations/Town06/Town06.net.xml"/>
        <route-files value="simulations/Town06/Town06.rou.xml"/>
        <additional-files value="simulations/Town06/Town06.poly.xml"/>
    </input>

    <output>
        <netstate-dump value="simulations/Town06/Town06.sumo.tr"/>
        <tripinfo-output value="simulations/Town06/Town06.tripinfo.xml"/>
        <vehroute-output value="simulations/Town06/Town06.vehroutes.xml"/>
    </output>

    <time>
        <begin value="0"/>
        <end value="1000"/>
    </time>

    <traci_server>
        <remote-port value="56569"/>
    </traci_server>

</configuration>
-->

<tripinfos xmlns:xsi="http://www.w3.org/2001/XMLSchema-instance" xsi:noNamespaceSchemaLocation="http://sumo.dlr.de/xsd/tripinfo_file.xsd">
    <tripinfo id="0" depart="0.00" departLane="39.0.00_0" departPos="5.10" departSpeed="0.00" departDelay="0.00" arrival="28.00" arrivalLane="-45.0.00_0" arrivalPos="52.49" arrivalSpeed="13.99" duration="28.00" routeLength="314.27" waitingTime="0.00" waitingCount="0" stopTime="0.00" timeLoss="5.57" rerouteNo="0" devices="vehroute_0 tripinfo_0" vType="DEFAULT_VEHTYPE" speedFactor="1.06" vaporized=""/>
    <tripinfo id="10" depart="10.00" departLane="11.0.00_0" departPos="5.10" departSpeed="0.00" departDelay="0.00" arrival="52.00" arrivalLane="-19.0.00_0" arrivalPos="80.55" arrivalSpeed="11.85" duration="42.00" routeLength="472.62" waitingTime="0.00" waitingCount="0" stopTime="0.00" timeLoss="5.02" rerouteNo="0" devices="vehroute_10 tripinfo_10" vType="DEFAULT_VEHTYPE" speedFactor="0.94" vaporized=""/>
    <tripinfo id="8" depart="10.00" departLane="-46.0.00_0" departPos="5.10" departSpeed="0.00" departDelay="2.00" arrival="56.00" arrivalLane="-79.0.00_0" arrivalPos="107.34" arrivalSpeed="14.26" duration="46.00" routeLength="594.17" waitingTime="0.00" waitingCount="0" stopTime="0.00" timeLoss="4.98" rerouteNo="0" devices="vehroute_8 tripinfo_8" vType="DEFAULT_VEHTYPE" speedFactor="1.05" vaporized=""/>
    <tripinfo id="33" depart="33.00" departLane="4.0.00_0" departPos="5.10" departSpeed="0.00" departDelay="0.00" arrival="59.00" arrivalLane="-54.0.00_0" arrivalPos="168.62" arrivalSpeed="15.89" duration="26.00" routeLength="348.72" waitingTime="0.00" waitingCount="0" stopTime="0.00" timeLoss="4.11" rerouteNo="0" devices="vehroute_33 tripinfo_33" vType="DEFAULT_VEHTYPE" speedFactor="1.18" vaporized=""/>
    <tripinfo id="4" depart="4.00" departLane="-21.0.00_0" departPos="5.10" departSpeed="0.00" departDelay="0.00" arrival="60.00" arrivalLane="-46.0.00_1" arrivalPos="491.63" arrivalSpeed="12.87" duration="56.00" routeLength="696.32" waitingTime="0.00" waitingCount="0" stopTime="0.00" timeLoss="5.84" rerouteNo="0" devices="vehroute_4 tripinfo_4" vType="DEFAULT_VEHTYPE" speedFactor="1.01" vaporized=""/>
    <tripinfo id="12" depart="12.00" departLane="-16.0.00_0" departPos="5.10" departSpeed="0.00" departDelay="0.00" arrival="61.00" arrivalLane="-56.0.00_0" arrivalPos="105.75" arrivalSpeed="10.62" duration="49.00" routeLength="280.93" waitingTime="14.00" waitingCount="1" stopTime="0.00" timeLoss="24.21" rerouteNo="0" devices="vehroute_12 tripinfo_12" vType="DEFAULT_VEHTYPE" speedFactor="0.86" vaporized=""/>
    <tripinfo id="23" depart="23.00" departLane="22.0.00_0" departPos="5.10" departSpeed="0.00" departDelay="0.00" arrival="61.00" arrivalLane="-14.0.00_0" arrivalPos="107.30" arrivalSpeed="13.94" duration="38.00" routeLength="450.27" waitingTime="0.00" waitingCount="0" stopTime="0.00" timeLoss="5.28" rerouteNo="0" devices="vehroute_23 tripinfo_23" vType="DEFAULT_VEHTYPE" speedFactor="1.02" vaporized=""/>
    <tripinfo id="21" depart="21.00" departLane="40.0.00_0" departPos="5.10" departSpeed="0.00" departDelay="0.00" arrival="80.00" arrivalLane="-46.0.00_1" arrivalPos="491.63" arrivalSpeed="12.89" duration="59.00" routeLength="671.87" waitingTime="0.00" waitingCount="0" stopTime="0.00" timeLoss="6.58" rerouteNo="0" devices="vehroute_21 tripinfo_21" vType="DEFAULT_VEHTYPE" speedFactor="0.94" vaporized=""/>
    <tripinfo id="63" depart="65.00" departLane="4.0.00_0" departPos="5.10" departSpeed="0.00" departDelay="2.00" arrival="80.00" arrivalLane="-53.0.00_0" arrivalPos="85.70" arrivalSpeed="13.03" duration="15.00" routeLength="163.66" waitingTime="0.00" waitingCount="0" stopTime="0.00" timeLoss="3.25" rerouteNo="0" devices="vehroute_63 tripinfo_63" vType="DEFAULT_VEHTYPE" speedFactor="1.02" vaporized=""/>
    <tripinfo id="17" depart="17.00" departLane="40.0.00_0" departPos="5.10" departSpeed="0.00" departDelay="0.00" arrival="81.00" arrivalLane="-46.0.00_2" arrivalPos="491.63" arrivalSpeed="12.85" duration="64.00" routeLength="671.87" waitingTime="4.00" waitingCount="1" stopTime="0.00" timeLoss="14.37" rerouteNo="0" devices="vehroute_17 tripinfo_17" vType="DEFAULT_VEHTYPE" speedFactor="0.99" vaporized=""/>
    <tripinfo id="19" depart="19.00" departLane="-34.23.73_0" departPos="5.10" departSpeed="0.00" departDelay="0.00" arrival="82.00" arrivalLane="-55.0.00_2" arrivalPos="159.99" arrivalSpeed="11.39" duration="63.00" routeLength="618.16" waitingTime="0.00" waitingCount="0" stopTime="0.00" timeLoss="11.82" rerouteNo="0" devices="vehroute_19 tripinfo_19" vType="DEFAULT_VEHTYPE" speedFactor="0.88" vaporized=""/>
    <tripinfo id="47" depart="47.00" departLane="-43.0.00_0" departPos="5.10" departSpeed="0.00" departDelay="0.00" arrival="83.00" arrivalLane="-36.0.00_0" arrivalPos="99.36" arrivalSpeed="14.57" duration="36.00" routeLength="436.03" waitingTime="0.00" waitingCount="0" stopTime="0.00" timeLoss="6.69" rerouteNo="0" devices="vehroute_47 tripinfo_47" vType="DEFAULT_VEHTYPE" speedFactor="1.09" vaporized=""/>
    <tripinfo id="15" depart="15.00" departLane="24.0.00_0" departPos="5.10" departSpeed="0.00" departDelay="0.00" arrival="85.00" arrivalLane="-1.0.00_0" arrivalPos="14.91" arrivalSpeed="13.39" duration="70.00" routeLength="825.06" waitingTime="0.00" waitingCount="0" stopTime="0.00" timeLoss="11.10" rerouteNo="0" devices="vehroute_15 tripinfo_15" vType="DEFAULT_VEHTYPE" speedFactor="1.05" vaporized=""/>
    <tripinfo id="14" depart="14.00" departLane="-7.0.00_0" departPos="5.10" departSpeed="0.00" departDelay="0.00" arrival="86.00" arrivalLane="-46.0.00_1" arrivalPos="491.63" arrivalSpeed="14.04" duration="72.00" routeLength="926.45" waitingTime="0.00" waitingCount="0" stopTime="0.00" timeLoss="6.17" rerouteNo="0" devices="vehroute_14 tripinfo_14" vType="DEFAULT_VEHTYPE" speedFactor="1.03" vaporized=""/>
    <tripinfo id="13" depart="13.00" departLane="-15.0.00_0" departPos="5.10" departSpeed="0.00" departDelay="0.00" arrival="92.00" arrivalLane="-66.0.00_0" arrivalPos="47.04" arrivalSpeed="14.18" duration="79.00" routeLength="714.16" waitingTime="12.00" waitingCount="1" stopTime="0.00" timeLoss="30.08" rerouteNo="0" devices="vehroute_13 tripinfo_13" vType="DEFAULT_VEHTYPE" speedFactor="1.09" vaporized=""/>
    <tripinfo id="61" depart="61.00" departLane="11.0.00_0" departPos="5.10" departSpeed="0.00" departDelay="0.00" arrival="94.00" arrivalLane="11.0.00_0" arrivalPos="357.71" arrivalSpeed="11.81" duration="33.00" routeLength="352.61" waitingTime="0.00" waitingCount="0" stopTime="0.00" timeLoss="3.96" rerouteNo="0" devices="vehroute_61 tripinfo_61" vType="DEFAULT_VEHTYPE" speedFactor="0.90" vaporized=""/>
    <tripinfo id="68" depart="68.00" departLane="-56.0.00_0" departPos="5.10" departSpeed="0.00" departDelay="0.00" arrival="99.00" arrivalLane="74.0.00_0" arrivalPos="29.99" arrivalSpeed="12.54" duration="31.00" routeLength="355.71" waitingTime="0.00" waitingCount="0" stopTime="0.00" timeLoss="4.91" rerouteNo="0" devices="vehroute_68 tripinfo_68" vType="DEFAULT_VEHTYPE" speedFactor="0.99" vaporized=""/>
    <tripinfo id="37" depart="37.00" departLane="-46.0.00_0" departPos="5.10" departSpeed="0.00" departDelay="0.00" arrival="103.00" arrivalLane="4.0.00_0" arrivalPos="82.96" arrivalSpeed="12.96" duration="66.00" routeLength="827.06" waitingTime="0.00" waitingCount="0" stopTime="0.00" timeLoss="5.97" rerouteNo="0" devices="vehroute_37 tripinfo_37" vType="DEFAULT_VEHTYPE" speedFactor="0.99" vaporized=""/>
    <tripinfo id="18" depart="18.00" departLane="-39.0.00_0" departPos="5.10" departSpeed="0.00" departDelay="0.00" arrival="107.00" arrivalLane="4.0.00_1" arrivalPos="82.96" arrivalSpeed="12.30" duration="89.00" routeLength="914.43" waitingTime="0.00" waitingCount="0" stopTime="0.00" timeLoss="16.62" rerouteNo="0" devices="vehroute_18 tripinfo_18" vType="DEFAULT_VEHTYPE" speedFactor="0.93" vaporized=""/>
    <tripinfo id="73" depart="73.00" departLane="22.0.00_0" departPos="5.10" departSpeed="0.00" departDelay="0.00" arrival="110.00" arrivalLane="-14.0.00_0" arrivalPos="107.30" arrivalSpeed="13.34" duration="37.00" routeLength="450.27" waitingTime="0.00" waitingCount="0" stopTime="0.00" timeLoss="5.15" rerouteNo="0" devices="vehroute_73 tripinfo_73" vType="DEFAULT_VEHTYPE" speedFactor="1.04" vaporized=""/>
    <tripinfo id="34" depart="34.00" departLane="77.0.00_0" departPos="5.10" departSpeed="0.00" departDelay="0.00" arrival="115.00" arrivalLane="-42.0.00_1" arrivalPos="117.57" arrivalSpeed="14.86" duration="81.00" routeLength="942.40" waitingTime="0.00" waitingCount="0" stopTime="0.00" timeLoss="19.64" rerouteNo="0" devices="vehroute_34 tripinfo_34" vType="DEFAULT_VEHTYPE" speedFactor="1.15" vaporized=""/>
    <tripinfo id="48" depart="48.00" departLane="-55.0.00_0" departPos="5.10" departSpeed="0.00" departDelay="0.00" arrival="116.00" arrivalLane="11.0.00_0" arrivalPos="357.71" arrivalSpeed="14.39" duration="68.00" routeLength="888.52" waitingTime="0.00" waitingCount="0" stopTime="0.00" timeLoss="5.62" rerouteNo="0" devices="vehroute_48 tripinfo_48" vType="DEFAULT_VEHTYPE" speedFactor="1.04" vaporized=""/>
    <tripinfo id="manual_vehicle_2" depart="2.00" departLane="3.0.00_0" departPos="5.10" departSpeed="0.00" departDelay="0.00" arrival="120.00" arrivalLane="37.0.00_1" arrivalPos="19.52" arrivalSpeed="5.34" duration="118.00" routeLength="1410.62" waitingTime="0.00" waitingCount="0" stopTime="0.00" timeLoss="16.84" rerouteNo="0" devices="vehroute_manual_vehicle_2 tripinfo_manual_vehicle_2" vType="DEFAULT_VEHTYPE" speedFactor="1.01" vaporized=""/>
    <tripinfo id="79" depart="80.00" departLane="-46.0.00_0" departPos="5.10" departSpeed="0.00" departDelay="1.00" arrival="122.00" arrivalLane="-46.0.00_0" arrivalPos="491.63" arrivalSpeed="13.24" duration="42.00" routeLength="486.53" waitingTime="0.00" waitingCount="0" stopTime="0.00" timeLoss="4.84" rerouteNo="0" devices="vehroute_79 tripinfo_79" vType="DEFAULT_VEHTYPE" speedFactor="0.96" vaporized=""/>
    <tripinfo id="32" depart="32.00" departLane="-29.0.00_0" departPos="5.10" departSpeed="0.00" departDelay="0.00" arrival="124.00" arrivalLane="-59.0.00_0" arrivalPos="54.44" arrivalSpeed="11.75" duration="92.00" routeLength="1072.52" waitingTime="0.00" waitingCount="0" stopTime="0.00" timeLoss="8.23" rerouteNo="0" devices="vehroute_32 tripinfo_32" vType="DEFAULT_VEHTYPE" speedFactor="0.93" vaporized=""/>
    <tripinfo id="60" depart="60.00" departLane="-52.0.00_0" departPos="5.10" departSpeed="0.00" departDelay="0.00" arrival="124.00" arrivalLane="37.0.00_1" arrivalPos="19.52" arrivalSpeed="6.19" duration="64.00" routeLength="688.76" waitingTime="0.00" waitingCount="0" stopTime="0.00" timeLoss="12.99" rerouteNo="0" devices="vehroute_60 tripinfo_60" vType="DEFAULT_VEHTYPE" speedFactor="1.00" vaporized=""/>
    <tripinfo id="80" depart="80.00" departLane="-58.18.46_0" departPos="5.10" departSpeed="0.00" departDelay="0.00" arrival="125.00" arrivalLane="11.0.00_0" arrivalPos="357.71" arrivalSpeed="12.79" duration="45.00" routeLength="533.72" waitingTime="0.00" waitingCount="0" stopTime="0.00" timeLoss="5.51" rerouteNo="0" devices="vehroute_80 tripinfo_80" vType="DEFAULT_VEHTYPE" speedFactor="0.98" vaporized=""/>
    <tripinfo id="16" depart="16.00" departLane="-55.0.00_0" departPos="5.10" departSpeed="0.00" departDelay="0.00" arrival="127.00" arrivalLane="-54.0.00_3" arrivalPos="168.62" arrivalSpeed="15.36" duration="111.00" routeLength="1404.36" waitingTime="1.00" waitingCount="1" stopTime="0.00" timeLoss="20.26" rerouteNo="0" devices="vehroute_16 tripinfo_16" vType="DEFAULT_VEHTYPE" speedFactor="1.12" vaporized=""/>
    <tripinfo id="91" depart="91.00" departLane="-7.0.00_0" departPos="5.10" departSpeed="0.00" departDelay="0.00" arrival="129.00" arrivalLane="30.0.00_2" arrivalPos="12.15" arrivalSpeed="12.82" duration="38.00" routeLength="429.87" waitingTime="0.00" waitingCount="0" stopTime="0.00" timeLoss="4.50" rerouteNo="0" devices="vehroute_91 tripinfo_91" vType="DEFAULT_VEHTYPE" speedFactor="0.98" vaporized=""/>
    <tripinfo id="20" depart="20.00" departLane="25.0.00_0" departPos="1.43" departSpeed="0.00" departDelay="0.00" arrival="134.00" arrivalLane="4.0.00_2" arrivalPos="82.96" arrivalSpeed="12.72" duration="114.00" routeLength="1282.54" waitingTime="0.00" waitingCount="0" stopTime="0.00" timeLoss="15.79" rerouteNo="0" devices="vehroute_20 tripinfo_20" vType="DEFAULT_VEHTYPE" speedFactor="0.94" vaporized=""/>
    <tripinfo id="29" depart="29.00" departLane="-54.169.16_0" departPos="5.10" departSpeed="0.00" departDelay="0.00" arrival="136.00" arrivalLane="68.0.00_0" arrivalPos="55.45" arrivalSpeed="12.60" duration="107.00" routeLength="1265.72" waitingTime="0.00" waitingCount="0" stopTime="0.00" timeLoss="7.59" rerouteNo="0" devices="vehroute_29 tripinfo_29" vType="DEFAULT_VEHTYPE" speedFactor="0.92" vaporized=""/>
    <tripinfo id="42" depart="42.00" departLane="11.0.00_0" departPos="5.10" departSpeed="0.00" departDelay="0.00" arrival="136.00" arrivalLane="-79.0.00_2" arrivalPos="107.34" arrivalSpeed="15.74" duration="94.00" routeLength="1399.41" waitingTime="0.00" waitingCount="0" stopTime="0.00" timeLoss="8.02" rerouteNo="0" devices="vehroute_42 tripinfo_42" vType="DEFAULT_VEHTYPE" speedFactor="1.18" vaporized=""/>
    <tripinfo id="85" depart="85.00" departLane="-61.0.00_0" departPos="5.10" departSpeed="0.00" departDelay="0.00" arrival="136.00" arrivalLane="-9.0.00_0" arrivalPos="52.30" arrivalSpeed="13.61" duration="51.00" routeLength="640.76" waitingTime="0.00" waitingCount="0" stopTime="0.00" timeLoss="5.96" rerouteNo="0" devices="vehroute_85 tripinfo_85" vType="DEFAULT_VEHTYPE" speedFactor="1.03" vaporized=""/>
    <tripinfo id="66" depart="66.00" departLane="-19.0.00_0" departPos="5.10" departSpeed="0.00" departDelay="0.00" arrival="138.00" arrivalLane="-8.0.00_0" arrivalPos="101.07" arrivalSpeed="14.61" duration="72.00" routeLength="843.79" waitingTime="0.00" waitingCount="0" stopTime="0.00" timeLoss="14.59" rerouteNo="0" devices="vehroute_66 tripinfo_66" vType="DEFAULT_VEHTYPE" speedFactor="1.12" vaporized=""/>
    <tripinfo id="25" depart="26.00" departLane="22.0.00_0" departPos="5.10" departSpeed="0.00" departDelay="1.00" arrival="147.00" arrivalLane="-38.0.00_0" arrivalPos="65.97" arrivalSpeed="13.02" duration="121.00" routeLength="833.40" waitingTime="39.00" waitingCount="2" stopTime="0.00" timeLoss="58.17" rerouteNo="0" devices="vehroute_25 tripinfo_25" vType="DEFAULT_VEHTYPE" speedFactor="0.98" vaporized=""/>
    <tripinfo id="50" depart="50.00" departLane="-60.0.00_0" departPos="5.10" departSpeed="0.00" departDelay="0.00" arrival="152.00" arrivalLane="-56.0.00_0" arrivalPos="105.75" arrivalSpeed="14.99" duration="102.00" routeLength="716.46" waitingTime="34.00" waitingCount="1" stopTime="0.00" timeLoss="52.91" rerouteNo="0" devices="vehroute_50 tripinfo_50" vType="DEFAULT_VEHTYPE" speedFactor="1.09" vaporized=""/>
    <tripinfo id="36" depart="36.00" departLane="3.0.00_0" departPos="5.10" departSpeed="0.00" departDelay="0.00" arrival="155.00" arrivalLane="37.0.00_0" arrivalPos="19.52" arrivalSpeed="15.33" duration="119.00" routeLength="1410.62" waitingTime="11.00" waitingCount="1" stopTime="0.00" timeLoss="31.57" rerouteNo="0" devices="vehroute_36 tripinfo_36" vType="DEFAULT_VEHTYPE" speedFactor="1.17" vaporized=""/>
    <tripinfo id="46" depart="46.00" departLane="60.0.00_0" departPos="5.10" departSpeed="0.00" departDelay="0.00" arrival="156.00" arrivalLane="-9.0.00_0" arrivalPos="52.30" arrivalSpeed="13.19" duration="110.00" routeLength="902.33" waitingTime="25.00" waitingCount="2" stopTime="0.00" timeLoss="41.00" rerouteNo="0" devices="vehroute_46 tripinfo_46" vType="DEFAULT_VEHTYPE" speedFactor="0.96" vaporized=""/>
    <tripinfo id="3" depart="3.00" departLane="-79.0.00_0" departPos="5.10" departSpeed="0.00" departDelay="0.00" arrival="158.00" arrivalLane="-34.23.73_2" arrivalPos="175.42" arrivalSpeed="12.96" duration="155.00" routeLength="1784.08" waitingTime="1.00" waitingCount="1" stopTime="0.00" timeLoss="17.00" rerouteNo="0" devices="vehroute_3 tripinfo_3" vType="DEFAULT_VEHTYPE" speedFactor="0.94" vaporized=""/>
    <tripinfo id="54" depart="55.00" departLane="-46.0.00_0" departPos="5.10" departSpeed="0.00" departDelay="1.00" arrival="158.00" arrivalLane="-54.169.16_0" arrivalPos="1="0" stopTime="0.00" timeLoss="7.14" rerouteNo="0" devices="vehroute_54 tripinfo_54" vType="DEFAULT_VEHTYPE" speedFactor="0.85" vaporized=""/>
    <tripinfo id="3" depart="3.00" departLane="-79.0.00_0" departPos="5.10" departSpeed="0.00" departDelay="0.00" arrival="158.00" arrivalLane="-34.23.73_3" arrivalPos="175.42" arrivalSpeed="12.48" duration="155.00" routeLength="1784.08" waitingTime="2.00" waitingCount="1" stopTime="0.00" timeLoss="17.15" rerouteNo="0" devices="vehroute_3 tripinfo_3" vType="DEFAULT_VEHTYPE" speedFactor="0.94" vaporized=""/>
    <tripinfo id="78" depart="78.00" departLane="-12.0.00_0" departPos="5.10" departSpeed="0.00" departDelay="0.00" arrival="159.00" arrivalLane="-54.0.00_3" arrivalPos="168.62" arrivalSpeed="13.56" duration="81.00" routeLength="960.17" waitingTime="2.00" waitingCount="1" stopTime="0.00" timeLoss="14.44" rerouteNo="0" devices="vehroute_78 tripinfo_78" vType="DEFAULT_VEHTYPE" speedFactor="1.06" vaporized=""/>
</tripinfos>
es="vehroute_5 tripinfo_5" vType="DEFAULT_VEHTYPE" speedFactor="1.08" vaporized=""/>
    <tripinfo id="55" depart="55.00" departLane="-66.0.00_0" departPos="5.10" departSpeed="0.00" departDelay="0.00" arrival="162.00" arrivalLane="60.0.00_0" arrivalPos="63.56" arrivalSpeed="11.84" duration="107.00" routeLength="819.42" waitingTime="16.00" waitingCount="2" stopTime="0.00" timeLoss="35.94" rerouteNo="0" devices="vehroute_55 tripinfo_55" vType="DEFAULT_VEHTYPE" speedFactor="0.85" vaporized=""/>
    <tripinfo id="78" depart="78.00" departLane="-12.0.00_0" departPos="5.10" departSpeed="0.00" departDelay="0.00" arrival="163.00" arrivalLane="-54.0.00_3" arrivalPos="168.62" arrivalSpeed="14.25" duration="85.00" routeLength="960.17" waitingTime="4.00" waitingCount="1" stopTime="0.00" timeLoss="17.96" rerouteNo="0" devices="vehroute_78 tripinfo_78" vType="DEFAULT_VEHTYPE" speedFactor="1.06" vaporized=""/>
    <tripinfo id="87" depart="87.00" departLane="-56.0.00_0" departPos="5.10" departSpeed="0.00" departDelay="0.00" arrival="165.00" arrivalLane="-9.0.00_0" arrivalPos="52.30" arrivalSpeed="13.02" duration="78.00" routeLength="1002.92" waitingTime="0.00" waitingCount="0" stopTime="0.00" timeLoss="6.99" rerouteNo="0" devices="vehroute_87 tripinfo_87" vType="DEFAULT_VEHTYPE" speedFactor="1.02" vaporized=""/>
    <tripinfo id="44" depart="44.00" departLane="24.0.00_0" departPos="5.10" departSpeed="0.00" departDelay="0.00" arrival="167.00" arrivalLane="-34.23.73_0" arrivalPos="175.42" arrivalSpeed="11.78" duration="123.00" routeLength="1279.27" waitingTime="1.00" waitingCount="1" stopTime="0.00" timeLoss="17.89" rerouteNo="0" devices="vehroute_44 tripinfo_44" vType="DEFAULT_VEHTYPE" speedFactor="0.90" vaporized=""/>
    <tripinfo id="81" depart="81.00" departLane="22.0.00_0" departPos="5.10" departSpeed="0.00" departDelay="0.00" arrival="170.00" arrivalLane="-36.0.00_0" arrivalPos="99.36" arrivalSpeed="14.24" duration="89.00" routeLength="1141.58" waitingTime="0.00" waitingCount="0" stopTime="0.00" timeLoss="7.82" rerouteNo="0" devices="vehroute_81 tripinfo_81" vType="DEFAULT_VEHTYPE" speedFactor="1.03" vaporized=""/>
    <tripinfo id="67" depart="67.00" departLane="24.0.00_0" departPos="5.10" departSpeed="0.00" departDelay="0.00" arrival="173.00" arrivalLane="-52.0.00_0" arrivalPos="20.88" arrivalSpeed="12.84" duration="106.00" routeLength="1067.94" waitingTime="8.00" waitingCount="2" stopTime="0.00" timeLoss="28.11" rerouteNo="0" devices="vehroute_67 tripinfo_67" vType="DEFAULT_VEHTYPE" speedFactor="1.02" vaporized=""/>
    <tripinfo id="manual_vehicle_0" depart="0.00" departLane="31.0.00_0" departPos="5.10" departSpeed="0.00" departDelay="0.00" arrival="176.00" arrivalLane="-46.0.00_0" arrivalPos="491.63" arrivalSpeed="14.61" duration="176.00" routeLength="1695.47" waitingTime="38.00" waitingCount="2" stopTime="0.00" timeLoss="59.62" rerouteNo="0" devices="vehroute_manual_vehicle_0 tripinfo_manual_vehicle_0" vType="DEFAULT_VEHTYPE" speedFactor="1.06" vaporized=""/>
    <tripinfo id="56" depart="56.00" departLane="60.0.00_0" departPos="5.10" departSpeed="0.00" departDelay="0.00" arrival="176.00" arrivalLane="-38.0.00_0" arrivalPos="65.97" arrivalSpeed="15.59" duration="120.00" routeLength="684.15" waitingTime="32.00" waitingCount="5" stopTime="0.00" timeLoss="77.62" rerouteNo="0" devices="vehroute_56 tripinfo_56" vType="DEFAULT_VEHTYPE" speedFactor="1.17" vaporized=""/>
    <tripinfo id="70" depart="70.00" departLane="39.0.00_0" departPos="5.10" departSpeed="0.00" departDelay="0.00" arrival="176.00" arrivalLane="-54.0.00_3" arrivalPos="168.62" arrivalSpeed="11.96" duration="106.00" routeLength="1110.52" waitingTime="0.00" waitingCount="0" stopTime="0.00" timeLoss="13.00" rerouteNo="0" devices="vehroute_70 tripinfo_70" vType="DEFAULT_VEHTYPE" speedFactor="0.88" vaporized=""/>
    <tripinfo id="93" depart="93.00" departLane="39.0.00_0" departPos="5.10" departSpeed="0.00" departDelay="0.00" arrival="176.00" arrivalLane="-36.0.00_0" arrivalPos="99.36" arrivalSpeed="14.15" duration="83.00" routeLength="960.31" waitingTime="0.00" waitingCount="0" stopTime="0.00" timeLoss="14.98" rerouteNo="0" devices="vehroute_93 tripinfo_93" vType="DEFAULT_VEHTYPE" speedFactor="1.04" vaporized=""/>
    <tripinfo id="99" depart="99.00" departLane="-16.16.01_0" departPos="5.10" departSpeed="0.00" departDelay="0.00" arrival="177.00" arrivalLane="-53.0.00_0" arrivalPos="85.70" arrivalSpeed="11.86" duration="78.00" routeLength="821.81" waitingTime="0.00" waitingCount="0" stopTime="0.00" timeLoss="9.84" rerouteNo="0" devices="vehroute_99 tripinfo_99" vType="DEFAULT_VEHTYPE" speedFactor="0.92" vaporized=""/>
    <tripinfo id="7" depart="7.00" departLane="-46.0.00_0" departPos="5.10" departSpeed="0.00" departDelay="0.00" arrival="180.00" arrivalLane="-66.0.00_0" arrivalPos="47.04" arrivalSpeed="10.64" duration="173.00" routeLength="1826.17" waitingTime="0.00" waitingCount="0" stopTime="0.00" timeLoss="14.14" rerouteNo="0" devices="vehroute_7 tripinfo_7" vType="DEFAULT_VEHTYPE" speedFactor="0.83" vaporized=""/>
    <tripinfo id="26" depart="26.00" departLane="6.0.00_0" departPos="5.10" departSpeed="0.00" departDelay="0.00" arrival="180.00" arrivalLane="49.0.00_0" arrivalPos="50.15" arrivalSpeed="11.55" duration="154.00" routeLength="1583.97" waitingTime="3.00" waitingCount="1" stopTime="0.00" timeLoss="23.49" rerouteNo="0" devices="vehroute_26 tripinfo_26" vType="DEFAULT_VEHTYPE" speedFactor="0.89" vaporized=""/>
    <tripinfo id="27" depart="27.00" departLane="66.0.00_0" departPos="5.10" departSpeed="0.00" departDelay="0.00" arrival="180.00" arrivalLane="-46.0.00_0" arrivalPos="491.63" arrivalSpeed="10.93" duration="153.00" routeLength="971.90" waitingTime="46.00" waitingCount="1" stopTime="0.00" timeLoss="65.94" rerouteNo="0" devices="vehroute_27 tripinfo_27" vType="DEFAULT_VEHTYPE" speedFactor="0.83" vaporized=""/>
    <tripinfo id="59" depart="59.00" departLane="-45.0.00_0" departPos="5.10" departSpeed="0.00" departDelay="0.00" arrival="180.00" arrivalLane="-58.0.00_1" arrivalPos="15.27" arrivalSpeed="13.36" duration="121.00" routeLength="1465.39" waitingTime="1.00" waitingCount="1" stopTime="0.00" timeLoss="16.02" rerouteNo="0" devices="vehroute_59 tripinfo_59" vType="DEFAULT_VEHTYPE" speedFactor="1.00" vaporized=""/>
    <tripinfo id="82" depart="82.00" departLane="11.0.00_0" departPos="5.10" departSpeed="0.00" departDelay="0.00" arrival="185.00" arrivalLane="-46.0.00_1" arrivalPos="491.63" arrivalSpeed="12.65" duration="103.00" routeLength="1291.77" waitingTime="0.00" waitingCount="0" stopTime="0.00" timeLoss="7.78" rerouteNo="0" devices="vehroute_82 tripinfo_82" vType="DEFAULT_VEHTYPE" speedFactor="0.98" vaporized=""/>
    <tripinfo id="43" depart="43.00" departLane="-43.0.00_0" departPos="5.10" departSpeed="0.00" departDelay="0.00" arrival="186.00" arrivalLane="-45.0.00_1" arrivalPos="52.49" arrivalSpeed="15.26" duration="143.00" routeLength="1764.46" waitingTime="0.00" waitingCount="0" stopTime="0.00" timeLoss="25.97" rerouteNo="0" devices="vehroute_43 tripinfo_43" vType="DEFAULT_VEHTYPE" speedFactor="1.10" vaporized=""/>
    <tripinfo id="83" depart="83.00" departLane="-66.0.00_0" departPos="5.10" departSpeed="0.00" departDelay="0.00" arrival="186.00" arrivalLane="-43.0.00_0" arrivalPos="203.50" arrivalSpeed="13.87" duration="103.00" routeLength="660.08" waitingTime="30.00" waitingCount="3" stopTime="0.00" timeLoss="55.79" rerouteNo="0" devices="vehroute_83 tripinfo_83" vType="DEFAULT_VEHTYPE" speedFactor="1.01" vaporized=""/>
    <tripinfo id="22" depart="22.00" departLane="-46.0.00_0" departPos="5.10" departSpeed="0.00" departDelay="0.00" arrival="189.00" arrivalLane="-35.0.00_0" arrivalPos="27.91" arrivalSpeed="14.94" duration="167.00" routeLength="2325.45" waitingTime="0.00" waitingCount="0" stopTime="0.00" timeLoss="21.05" rerouteNo="0" devices="vehroute_22 tripinfo_22" vType="DEFAULT_VEHTYPE" speedFactor="1.16" vaporized=""/>
    <tripinfo id="71" depart="71.00" departLane="-43.0.00_0" departPos="5.10" departSpeed="0.00" departDelay="0.00" arrival="189.00" arrivalLane="-58.0.00_1" arrivalPos="15.27" arrivalSpeed="12.38" duration="118.00" routeLength="1207.99" waitingTime="6.00" waitingCount="1" stopTime="0.00" timeLoss="21.18" rerouteNo="0" devices="vehroute_71 tripinfo_71" vType="DEFAULT_VEHTYPE" speedFactor="0.91" vaporized=""/>
    <tripinfo id="6" depart="6.00" departLane="31.0.00_0" departPos="5.10" departSpeed="0.00" departDelay="0.00" arrival="190.00" arrivalLane="-46.0.00_0" arrivalPos="491.63" arrivalSpeed="13.10" duration="184.00" routeLength="1695.47" waitingTime="41.00" waitingCount="3" stopTime="0.00" timeLoss="64.37" rerouteNo="0" devices="vehroute_6 tripinfo_6" vType="DEFAULT_VEHTYPE" speedFactor="1.03" vaporized=""/>
    <tripinfo id="64" depart="64.00" departLane="-66.0.00_0" departPos="5.10" departSpeed="0.00" departDelay="0.00" arrival="191.00" arrivalLane="4.0.00_0" arrivalPos="82.96" arrivalSpeed="13.42" duration="127.00" routeLength="1017.30" waitingTime="35.00" waitingCount="1" stopTime="0.00" timeLoss="50.82" rerouteNo="0" devices="vehroute_64 tripinfo_64" vType="DEFAULT_VEHTYPE" speedFactor="0.97" vaporized=""/>
    <tripinfo id="9" depart="9.00" departLane="-42.0.00_0" departPos="5.10" departSpeed="0.00" departDelay="0.00" arrival="192.00" arrivalLane="-38.0.00_0" arrivalPos="65.97" arrivalSpeed="11.39" duration="183.00" routeLength="2019.86" waitingTime="0.00" waitingCount="0" stopTime="0.00" timeLoss="17.77" rerouteNo="0" devices="vehroute_9 tripinfo_9" vType="DEFAULT_VEHTYPE" speedFactor="0.89" vaporized=""/>
    <tripinfo id="62" depart="64.00" departLane="-36.0.00_0" departPos="5.10" departSpeed="0.00" departDelay="2.00" arrival="192.00" arrivalLane="-34.23.73_2" arrivalPos="175.42" arrivalSpeed="15.80" duration="128.00" routeLength="1662.80" waitingTime="2.00" waitingCount="1" stopTime="0.00" timeLoss="21.64" rerouteNo="0" devices="vehroute_62 tripinfo_62" vType="DEFAULT_VEHTYPE" speedFactor="1.14" vaporized=""/>
    <tripinfo id="40" depart="40.00" departLane="-42.0.00_0" departPos="5.10" departSpeed="0.00" departDelay="0.00" arrival="196.00" arrivalLane="-16.16.01_3" arrivalPos="97.29" arrivalSpeed="12.23" duration="156.00" routeLength="1803.81" waitingTime="3.00" waitingCount="1" stopTime="0.00" timeLoss="22.09" rerouteNo="0" devices="vehroute_40 tripinfo_40" vType="DEFAULT_VEHTYPE" speedFactor="0.97" vaporized=""/>
    <tripinfo id="57" depart="57.00" departLane="-79.0.00_0" departPos="5.10" departSpeed="0.00" departDelay="0.00" arrival="199.00" arrivalLane="-34.23.73_2" arrivalPos="175.42" arrivalSpeed="12.96" duration="142.00" routeLength="1784.08" waitingTime="0.00" waitingCount="0" stopTime="0.00" timeLoss="14.47" rerouteNo="0" devices="vehroute_57 tripinfo_57" vType="DEFAULT_VEHTYPE" speedFactor="1.02" vaporized=""/>
    <tripinfo id="74" depart="74.00" departLane="-10.0.00_0" departPos="5.10" departSpeed="0.00" departDelay="0.00" arrival="201.00" arrivalLane="-39.0.00_1" arrivalPos="83.26" arrivalSpeed="13.84" duration="127.00" routeLength="690.31" waitingTime="61.00" waitingCount="1" stopTime="0.00" timeLoss="77.24" rerouteNo="0" devices="vehroute_74 tripinfo_74" vType="DEFAULT_VEHTYPE" speedFactor="1.02" vaporized=""/>
    <tripinfo id="76" depart="76.00" departLane="24.0.00_0" departPos="5.10" departSpeed="0.00" departDelay="0.00" arrival="202.00" arrivalLane="-34.23.73_0" arrivalPos="175.42" arrivalSpeed="13.12" duration="126.00" routeLength="1279.27" waitingTime="9.00" waitingCount="1" stopTime="0.00" timeLoss="28.48" rerouteNo="0" devices="vehroute_76 tripinfo_76" vType="DEFAULT_VEHTYPE" speedFactor="0.97" vaporized=""/>