<?xml version="1.0" encoding="UTF-8"?>

<!-- generated on Thu Jun 27 21:58:57 2019 by Eclipse SUMO Version 1.2.0
<configuration xmlns:xsi="http://www.w3.org/2001/XMLSchema-instance" xsi:noNamespaceSchemaLocation="http://sumo.dlr.de/xsd/sumoConfiguration.xsd">

    <input>
        <net-file value="simulations/Town06/Town06.net.xml"/>
        <route-files value="simulations/Town06/Town06.rou.xml"/>
        <additional-files value="simulations/Town06/Town06.poly.xml"/>
    </input>

    <output>
        <netstate-dump value="simulations/Town06/Town06.sumo.tr"/>
        <tripinfo-output value="simulations/Town06/Town06.tripinfo.xml"/>
        <vehroute-output value="simulations/Town06/Town06.vehroutes.xml"/>
    </output>

    <time>
        <begin value="0"/>
        <end value="1000"/>
    </time>

    <traci_server>
        <remote-port -->

<routes xmlns:xsi="http://www.w3.org/2001/XMLSchema-instance" xsi:noNamespaceSchemaLocation="http://sumo.dlr.de/xsd/routes_file.xsd">
    <vehicle id="0" depart="0.00" arrival="28.00">
        <route edges="39.0.00 30.0.00 -72.0.00 -70.0.00 -39.0.00 -45.0.00"/>
    </vehicle>

    <vehicle id="12" depart="12.00" arrival="44.00">
        <route edges="-16.0.00 -16.16.01 -47.0.00 37.0.00 -56.0.00"/>
    </vehicle>

    <vehicle id="10" depart="10.00" arrival="52.00">
        <route edges="11.0.00 -73.0.00 -19.0.00"/>
    </vehicle>

    <vehicle id="8" depart="10.00" arrival="56.00">
        <route edges="-46.0.00 -79.0.00"/>
    </vehicle>

    <vehicle id="33" depart="33.00" arrival="59.00">
        <route edges="4.0.00 -53.0.00 -54.0.00"/>
    </vehicle>

    <vehicle id="4" depart="4.00" arrival="60.00">
        <route edges="-21.0.00 -45.0.00 -46.0.00"/>
    </vehicle>

    <vehicle id="23" depart="23.00" arrival="61.00">
        <route edges="22.0.00 -75.0.00 -12.0.00 -13.0.00 -14.0.00"/>
    </vehicle>

    <vehicle id="13" depart="13.00" arrival="78.00">
        <route edges="-15.0.00 -16.0.00 -16.16.01 -47.0.00 37.0.00 -56.0.00 -57.0.00 -58.0.00 -58.18.46 -67.0.00 77.0.00 -14.0.00 -64.0.00 -65.0.00 -66.0.00"/>
    </vehicle>

    <vehicle id="63" depart="63.00" arrival="78.00">
        <route edges="4.0.00 -53.0.00"/>
    </vehicle>

    <vehicle id="21" depart="21.00" arrival="80.00">
        <route edges="40.0.00 -45.0.00 -46.0.00"/>
    </vehicle>

    <vehicle id="17" depart="17.00" arrival="81.00">
        <route edges="40.0.00 -45.0.00 -46.0.00"/>
    </vehicle>

    <vehicle id="19" depart="19.00" arrival="82.00">
        <route edges="-34.23.73 31.0.00 -54.0.00 -54.169.16 -55.0.00"/>
    </vehicle>

    <vehicle id="47" depart="47.00" arrival="83.00">
        <route edges="-43.0.00 -78.0.00 28.0.00 3.0.00 -36.0.00"/>
    </vehicle>

    <vehicle id="15" depart="15.00" arrival="84.00">
        <route edges="24.0.00 -7.0.00 48.0.00 49.0.00 -20.0.00 -21.0.00 39.0.00 30.0.00 -72.0.00 -70.0.00 -39.0.00 -40.0.00 -0.0.00 -1.0.00"/>
    </vehicle>

    <vehicle id="14" depart="14.00" arrival="86.00">
        <route edges="-7.0.00 48.0.00 49.0.00 -20.0.00 -21.0.00 -45.0.00 -46.0.00"/>
    </vehicle>

    <vehicle id="61" depart="61.00" arrival="94.00">
        <route edges="11.0.00"/>
    </vehicle>

    <vehicle id="68" depart="68.00" arrival="99.00">
        <route edges="-56.0.00 -57.0.00 -58.0.00 -58.18.46 -59.0.00 74.0.00"/>
    </vehicle>

    <vehicle id="37" depart="37.00" arrival="103.00">
        <route edges="-46.0.00 -79.0.00 6.0.00 5.0.00 4.0.00"/>
    </vehicle>

    <vehicle id="73" depart="73.00" arrival="110.00">
        <route edges="22.0.00 -75.0.00 -12.0.00 -13.0.00 -14.0.00"/>
    </vehicle>

    <vehicle id="18" depart="18.00" arrival="112.00">
        <route edges="-39.0.00 -45.0.00 -38.0.00 -71.0.00 76.0.00 -43.0.00 -78.0.00 28.0.00 3.0.00 -36.0.00 4.0.00"/>
    </vehicle>

    <vehicle id="34" depart="34.00" arrival="115.00">
        <route edges="77.0.00 -14.0.00 -64.0.00 -65.0.00 -66.0.00 1.0.00 0.0.00 40.0.00 39.0.00 30.0.00 -72.0.00 -70.0.00 -39.0.00 -40.0.00 -0.0.00 -41.0.00 -42.0.00"/>
    </vehicle>

    <vehicle id="50" depart="50.00" arrival="115.00">
        <route edges="-60.0.00 -57.0.00 -58.0.00 -58.18.46 -67.0.00 77.0.00 -14.0.00 -15.0.00 -16.0.00 -16.16.01 -47.0.00 37.0.00 -56.0.00"/>
    </vehicle>

    <vehicle id="48" depart="48.00" arrival="116.00">
        <route edges="-55.0.00 -56.0.00 -57.0.00 -58.0.00 -58.18.46 -59.0.00 74.0.00 11.0.00"/>
    </vehicle>

    <vehicle id="60" depart="60.00" arrival="119.00">
        <route edges="-52.0.00 -10.0.00 -50.0.00 -60.0.00 -57.0.00 -58.0.00 -58.18.46 -67.0.00 77.0.00 -14.0.00 -15.0.00 -16.0.00 -16.16.01 -47.0.00 37.0.00"/>
    </vehicle>

    <vehicle id="79" depart="80.00" arrival="122.00">
        <route edges="-46.0.00"/>
    </vehicle>

    <vehicle id="32" depart="32.00" arrival="124.00">
        <route edges="-29.0.00 -32.0.00 -33.0.00 -34.0.00 -34.23.73 31.0.00 -54.0.00 -54.169.16 -55.0.00 -56.0.00 -57.0.00 -58.0.00 -58.18.46 -59.0.00"/>
    </vehicle>

    <vehicle id="80" depart="80.00" arrival="124.00">
        <route edges="-58.18.46 -59.0.00 74.0.00 11.0.00"/>
    </vehicle>

    <vehicle id="91" depart="91.00" arrival="129.00">
        <route edges="-7.0.00 48.0.00 49.0.00 -20.0.00 -21.0.00 39.0.00 30.0.00"/>
    </vehicle>

    <vehicle id="27" depart="27.00" arrival="131.00">
        <route edges="66.0.00 65.0.00 64.0.00 63.0.00 62.0.00 61.0.00 -61.0.00 -62.0.00 -63.0.00 -64.0.00 -65.0.00 -66.0.00 1.0.00 0.0.00 40.0.00 -45.0.00 -46.0.00"/>
    </vehicle>

    <vehicle id="16" depart="16.00" arrival="132.00">
        <route edges="-55.0.00 -56.0.00 -57.0.00 -58.0.00 -58.18.46 -67.0.00 77.0.00 -14.0.00 -15.0.00 -16.0.00 -16.16.01 -17.0.00 -18.0.00 -29.0.00 -32.0.00 -33.0.00 -34.0.00 -34.23.73 31.0.00 -54.0.00"/>
    </vehicle>

    <vehicle id="20" depart="20.00" arrival="134.00">
        <route edges="25.0.00 24.0.00 -7.0.00 48.0.00 49.0.00 -20.0.00 -21.0.00 -45.0.00 -38.0.00 -71.0.00 76.0.00 -43.0.00 -78.0.00 28.0.00 3.0.00 -36.0.00 4.0.00"/>
    </vehicle>

    <vehicle id="29" depart="29.00" arrival="136.00">
        <route edges="-54.169.16 -55.0.00 -56.0.00 -57.0.00 -58.0.00 -58.18.46 -59.0.00 74.0.00 11.0.00 -73.0.00 -19.0.00 -20.0.00 -9.0.00 -69.0.00 68.0.00"/>
    </vehicle>

    <vehicle id="42" depart="42.00" arrival="136.00">
        <route edges="11.0.00 -73.0.00 -19.0.00 -20.0.00 -21.0.00 -45.0.00 -46.0.00 -79.0.00"/>
    </vehicle>

    <vehicle id="66" depart="66.00" arrival="136.00">
        <route edges="-19.0.00 -20.0.00 -21.0.00 39.0.00 30.0.00 -72.0.00 -70.0.00 -39.0.00 -40.0.00 -0.0.00 -41.0.00 -8.0.00"/>
    </vehicle>

    <vehicle id="85" depart="85.00" arrival="137.00">
        <route edges="-61.0.00 -62.0.00 -63.0.00 -64.0.00 -65.0.00 -66.0.00 1.0.00 27.0.00 26.58.80 26.0.00 25.0.00 24.0.00 -7.0.00 48.0.00 49.0.00 -20.0.00 -9.0.00"/>
    </vehicle>

    <vehicle id="36" depart="36.00" arrival="146.00">
        <route edges="3.0.00 -36.0.00 4.0.00 -53.0.00 -54.0.00 -54.169.16 -55.0.00 -56.0.00 -57.0.00 -58.0.00 -58.18.46 -67.0.00 77.0.00 -14.0.00 -15.0.00 -16.0.00 -16.16.01 -47.0.00 37.0.00"/>
    </vehicle>

    <vehicle id="25" depart="26.00" arrival="148.00">
        <route edges="22.0.00 -75.0.00 -12.0.00 -13.0.00 -14.0.00 -64.0.00 -65.0.00 -66.0.00 1.0.00 0.0.00 40.0.00 -45.0.00 -38.0.00"/>
    </vehicle>

    <vehicle id="46" depart="46.00" arrival="155.00">
        <route edges="60.0.00 -52.0.00 -10.0.00 -50.0.00 -60.0.00 -61.0.00 -62.0.00 -63.0.00 -64.0.00 -65.0.00 -66.0.00 1.0.00 27.0.00 26.58.80 26.0.00 25.0.00 24.0.00 -7.0.00 48.0.00 49.0.00 -20.0.00 -9.0.00"/>
    </vehicle>

    <vehicle id="45" depart="45.00" arrival="157.00">
        <route edges="26.0.00 25.0.00 24.0.00 -7.0.00 48.0.00 49.0.00 -20.0.00 -21.0.00 -45.0.00 -38.0.00 -71.0.00 76.0.00 -43.0.00 -78.0.00 28.0.00 3.0.00 -36.0.00 4.0.00 -53.0.00"/>
    </vehicle>

    <vehicle id="54" depart="55.00" arrival="157.00">
        <route edges="-46.0.00 -79.0.00 6.0.00 5.0.00 4.0.00 -53.0.00 -54.0.00 -54.169.16"/>
    </vehicle>

    <vehicle id="3" depart="3.00" arrival="158.00">
        <route edges="-79.0.00 6.0.00 5.0.00 4.0.00 -53.0.00 -54.0.00 -54.169.16 -55.0.00 -56.0.00 -57.0.00 -58.0.00 -58.18.46 -67.0.00 77.0.00 -14.0.00 -15.0.00 -16.0.00 -16.16.01 -17.0.00 -18.0.00 -29.0.00 -32.0.00 -33.0.00 -34.0.00 -34.23.73"/>
    </vehicle>

    <vehicle id="78" depart="78.00" arrival="159.00">
        <route edges="-12.0.00 -13.0.00 -14.0.00 -15.0.00 -16.0.00 -16.16.01 -17.0.00 -18.0.00 -29.0.00 -32.0.00 -33.0.00 -34.0.00 -34.23.73 31.0.00 -54.0.00"/>
    </vehicle>

</routes>
9.16 -55.0.00 -56.0.00 -57.0.00 -58.0.00 -58.18.46 -67.0.00 77.0.00 -14.0.00 -15.0.00 -16.0.00 -16.16.01 -17.0.00 -18.0.00 -29.0.00 -32.0.00 -33.0.00 -34.0.00 -34.23.73"/>
    </vehicle>

    <vehicle id="55" depart="55.00" arrival="162.00">
        <route edges="-66.0.00 1.0.00 0.0.00 40.0.00 39.0.00 30.0.00 -72.0.00 -70.0.00 -39.0.00 -40.0.00 -0.0.00 -1.0.00 66.0.00 65.0.00 64.0.00 63.0.00 62.0.00 61.0.00 60.0.00"/>
    </vehicle>

    <vehicle id="78" depart="78.00" arrival="163.00">
        <route edges="-12.0.00 -13.0.00 -14.0.00 -15.0.00 -16.0.00 -16.16.01 -17.0.00 -18.0.00 -29.0.00 -32.0.00 -33.0.00 -34.0.00 -34.23.73 31.0.00 -54.0.00"/>
    </vehicle>

    <vehicle id="87" depart="87.00" arrival="165.00">
        <route edges="-56.0.00 -57.0.00 -58.0.00 -58.18.46 -59.0.00 74.0.00 11.0.00 -73.0.00 -19.0.00 -20.0.00 -9.0.00"/>
    </vehicle>

    <vehicle id="44" depart="44.00" arrival="167.00">
        <route edges="24.0.00 -7.0.00 48.0.00 49.0.00 -20.0.00 -21.0.00 39.0.00 30.0.00 -72.0.00 -70.0.00 -39.0.00 -40.0.00 -0.0.00 -41.0.00 -8.0.00 2.0.00 51.0.00 -33.0.00 -34.0.00 -34.23.73"/>
    </vehicle>

    <vehicle id="81" depart="81.00" arrival="170.00">
        <route edges="22.0.00 -75.0.00 -12.0.00 -13.0.00 -14.0.00 -15.0.00 -16.0.00 -16.16.01 -17.0.00 -18.0.00 -29.0.00 -32.0.00 -33.0.00 -34.0.00 -34.23.73 -35.0.00 -36.0.00"/>
    </vehicle>

    <vehicle id="67" depart="67.00" arrival="173.00">
        <route edges="24.0.00 -7.0.00 48.0.00 49.0.00 -20.0.00 -21.0.00 39.0.00 30.0.00 -72.0.00 -70.0.00 -39.0.00 -40.0.00 -0.0.00 -1.0.00 66.0.00 65.0.00 64.0.00 63.0.00 62.0.00 61.0.00 60.0.00 -52.0.00"/>
    </vehicle>

    <vehicle id="manual_vehicle_0" depart="0.00" arrival="176.00">
        <route edges="31.0.00 -54.0.00 -54.169.16 -55.0.00 -56.0.00 -57.0.00 -58.0.00 -58.18.46 -67.0.00 77.0.00 -14.0.00 -64.0.00 -65.0.00 -66.0.00 1.0.00 0.0.00 40.0.00 -45.0.00 -46.0.00"/>
    </vehicle>

    <vehicle id="56" depart="56.00" arrival="176.00">
        <route edges="60.0.00 -52.0.00 -10.0.00 -50.0.00 -60.0.00 -61.0.00 -62.0.00 -63.0.00 -64.0.00 -65.0.00 -66.0.00 1.0.00 0.0.00 40.0.00 -45.0.00 -38.0.00"/>
    </vehicle>

    <vehicle id="70" depart="70.00" arrival="176.00">
        <route edges="39.0.00 30.0.00 -72.0.00 -70.0.00 -39.0.00 -40.0.00 -0.0.00 -41.0.00 -8.0.00 2.0.00 51.0.00 -33.0.00 -34.0.00 -34.23.73 31.0.00 -54.0.00"/>
    </vehicle>

    <vehicle id="93" depart="93.00" arrival="176.00">
        <route edges="39.0.00 30.0.00 -72.0.00 -70.0.00 -39.0.00 -45.0.00 -38.0.00 -71.0.00 76.0.00 -43.0.00 -78.0.00 28.0.00 3.0.00 -36.0.00"/>
    </vehicle>

    <vehicle id="99" depart="99.00" arrival="177.00">
        <route edges="-16.16.01 -17.0.00 -18.0.00 -29.0.00 -32.0.00 -33.0.00 -34.0.00 -34.23.73 -35.0.00 -36.0.00 4.0.00 -53.0.00"/>
    </vehicle>

    <vehicle id="7" depart="7.00" arrival="180.00">
        <route edges="-46.0.00 -79.0.00 6.0.00 5.0.00 4.0.00 -53.0.00 -54.0.00 -54.169.16 -55.0.00 -56.0.00 -57.0.00 -58.0.00 -58.18.46 -67.0.00 77.0.00 -14.0.00 -64.0.00 -65.0.00 -66.0.00"/>
    </vehicle>

    <vehicle id="26" depart="26.00" arrival="180.00">
        <route edges="6.0.00 5.0.00 4.0.00 -53.0.00 -54.0.00 -54.169.16 -55.0.00 -56.0.00 -57.0.00 -58.0.00 -58.18.46 -67.0.00 77.0.00 -14.0.00 -64.0.00 -65.0.00 -66.0.00 1.0.00 27.0.00 26.58.80 26.0.00 25.0.00 24.0.00 -7.0.00 48.0.00 49.0.00"/>
    </vehicle>

    <vehicle id="27" depart="27.00" arrival="180.00">
        <route edges="66.0.00 65.0.00 64.0.00 63.0.00 62.0.00 61.0.00 -61.0.00 -62.0.00 -63.0.00 -64.0.00 -65.0.00 -66.0.00 1.0.00 0.0.00 40.0.00 -45.0.00 -46.0.00"/>
    </vehicle>

    <vehicle id="59" depart="59.00" arrival="180.00">
        <route edges="-45.0.00 -38.0.00 -71.0.00 76.0.00 -43.0.00 -78.0.00 28.0.00 3.0.00 -36.0.00 4.0.00 -53.0.00 -54.0.00 -54.169.16 -55.0.00 -56.0.00 -57.0.00 -58.0.00"/>
    </vehicle>

    <vehicle id="82" depart="82.00" arrival="185.00">
        <route edges="11.0.00 -73.0.00 -19.0.00 -20.0.00 -21.0.00 -45.0.00 -46.0.00"/>
    </vehicle>

    <vehicle id="43" depart="43.00" arrival="186.00">
        <route edges="-43.0.00 -78.0.00 28.0.00 3.0.00 -36.0.00 4.0.00 -53.0.00 -54.0.00 -54.169.16 -55.0.00 -56.0.00 -57.0.00 -58.0.00 -58.18.46 -67.0.00 77.0.00 -14.0.00 -64.0.00 -65.0.00 -66.0.00 1.0.00 0.0.00 40.0.00 -45.0.00"/>
    </vehicle>

    <vehicle id="83" depart="83.00" arrival="186.00">
        <route edges="-66.0.00 1.0.00 0.0.00 40.0.00 -45.0.00 -38.0.00 -71.0.00 76.0.00 -43.0.00"/>
    </vehicle>

    <vehicle id="22" depart="22.00" arrival="189.00">
        <route edges="-46.0.00 -79.0.00 6.0.00 5.0.00 4.0.00 -53.0.00 -54.0.00 -54.169.16 -55.0.00 -56.0.00 -57.0.00 -58.0.00 -58.18.46 -67.0.00 77.0.00 -14.0.00 -15.0.00 -16.0.00 -16.16.01 -17.0.00 -18.0.00 -29.0.00 -32.0.00 -33.0.00 -34.0.00 -34.23.73 -35.0.00"/>
    </vehicle>

    <vehicle id="71" depart="71.00" arrival="189.00">
        <route edges="-43.0.00 -78.0.00 28.0.00 3.0.00 -36.0.00 4.0.00 -53.0.00 -54.0.00 -54.169.16 -55.0.00 -56.0.00 -57.0.00 -58.0.00"/>
    </vehicle>

    <vehicle id="6" depart="6.00" arrival="190.00">
        <route edges="31.0.00 -54.0.00 -54.169.16 -55.0.00 -56.0.00 -57.0.00 -58.0.00 -58.18.46 -67.0.00 77.0.00 -14.0.00 -64.0.00 -65.0.00 -66.0.00 1.0.00 0.0.00 40.0.00 -45.0.00 -46.0.00"/>
    </vehicle>

    <vehicle id="64" depart="64.00" arrival="191.00">
        <route edges="-66.0.00 1.0.00 0.0.00 40.0.00 -45.0.00 -38.0.00 -71.0.00 76.0.00 -43.0.00 -78.0.00 28.0.00 3.0.00 -36.0.00 4.0.00"/>
    </vehicle>

    <vehicle id="9" depart="9.00" arrival="192.00">
        <route edges="-42.0.00 -43.0.00 -78.0.00 28.0.00 3.0.00 -36.0.00 4.0.00 -53.0.00 -54.0.00 -54.169.16 -55.0.00 -56.0.00 -57.0.00 -58.0.00 -58.18.46 -67.0.00 77.0.00 -14.0.00 -64.0.00 -65.0.00 -66.0.00 1.0.00 0.0.00 40.0.00 -45.0.00 -38.0.00"/>
    </vehicle>

    <vehicle id="62" depart="64.00" arrival="192.00">
        <route edges="-36.0.00 4.0.00 -53.0.00 -54.0.00 -54.169.16 -55.0.00 -56.0.00 -57.0.00 -58.0.00 -58.18.46 -67.0.00 77.0.00 -14.0.00 -15.0.00 -16.0.00 -16.16.01 -17.0.00 -18.0.00 -29.0.00 -32.0.00 -33.0.00 -34.0.00 -34.23.73"/>
    </vehicle>

    <vehicle id="40" depart="40.00" arrival="196.00">
        <route edges="-42.0.00 -43.0.00 -78.0.00 28.0.00 3.0.00 -36.0.00 4.0.00 -53.0.00 -54.0.00 -54.169.16 -55.0.00 -56.0.00 -57.0.00 -58.0.00 -58.18.46 -67.0.00 77.0.00 -14.0.00 -15.0.00 -16.0.00 -16.16.01"/>
    </vehicle>

    <vehicle id="57" depart="57.00" arrival="199.00">
        <route edges="-79.0.00 6.0.00 5.0.00 4.0.00 -53.0.00 -54.0.00 -54.169.16 -55.0.00 -56.0.00 -57.0.00 -58.0.00 -58.18.46 -67.0.00 77.0.00 -14.0.00 -15.0.00 -16.0.00 -16.16.01 -17.0.00 -18.0.00 -29.0.00 -32.0.00 -33.0.00 -34.0.00 -34.23.73"/>
    </vehicle>

    <vehicle id="74" depart="74.00" arrival="201.00">
        <route edges="-10.0.00 -50.0.00 -60.0.00 -61.0.00 -62.0.00 -63.0.00 -64.0.00 -65.0.00 -66.0.00 1.0.00 0.0.00 40.0.00 39.0.00 30.0.00 -72.0.00 -70.0.00 -39.0.00"/>
    </vehicle>

    <vehicle id="76" depart="76.00" arrival="202.00">
        <route edges="24.0.00 -7.0.00 48.0.00 49.0.00 -20.0.00 -21.0.00 39.0.00 30.0.00 -72.0.00 -70.0.00 -39.0.00 -40.0.00 -0.0.00 -41.0.00 -8.0.00 2.0.00 51.0.00 -33.0.00 -34.0.00 -34.23.73"/>
    </vehicle>

    <vehicle id="84" depart="84.00" arrival="211.00">
        <route edges="40.0.00 -45.0.00 -38.0.00 -71.0.00 76.0.00 -43.0.00 -78.0.00 28.0.00 3.0.00 -36.0.00 4.0.00"/>
    </vehicle>

    <vehicle id="65" depart="65.00" arrival="212.00">
        <route edges="-8.0.00 2.0.00 51.0.00 -33.0.00 -34.0.00 -34.23.73 31.0.00 -54.0.00 -54.169.16 -55.0.00 -56.0.00 -57.0.00 -58.0.00 -58.18.46 -67.0.00 77.0.00 -14.0.00 -64.0.00 -65.0.00 -66.0.00 1.0.00 0.0.00 40.0.00 39.0.00 30.0.00 -72.0.00"/>
    </vehicle>

    <vehicle id="97" depart="99.00" arrival="212.00">
        <route edges="11.0.00 -73.0.00 -19.0.00 -20.0.00 -21.0.00 -45.0.00 -46.0.00"/>
    </vehicle>

    <vehicle id="31" depart="31.00" arrival="215.00">
        <route edges="31.0.00 -54.0.00 -54.169.16 -55.0.00 -56.0.00 -57.0.00 -58.0.00 -58.18.46 -67.0.00 77.0.00 -14.0.00 -64.0.00 -65.0.00 -66.0.00 1.0.00 0.0.00 40.0.00 -45.0.00 -46.0.00 -79.0.00 6.0.00"/>
    </vehicle>

    <vehicle id="24" depart="24.00" arrival="216.00">
        <route edges="76.0.00 -43.0.00 -78.0.00 28.0.00 3.0.00 -36.0.00 4.0.00 -53.0.00 -54.0.00 -54.169.16 -55.0.00 -56.0.00 -57.0.00 -58.0.00 -58.18.46 -67.0.00 77.0.00 -14.0.00 -64.0.00 -65.0.00 -66.0.00 1.0.00 0.0.00 40.0.00 39.0.00 30.0.00 -72.0.00 -70.0.00 -39.0.00 -40.0.00"/>
    </vehicle>

    <vehicle id="28" depart="28.00" arrival="216.00">
        <route edges="30.0.00 -72.0.00 -70.0.00 -39.0.00 -40.0.00 -0.0.00 -1.0.00 66.0.00 65.0.00 64.0.00 63.0.00 62.0.00 61.0.00 -61.0.00 -62.0.00 -63.0.00 -64.0.00 -65.0.00 -66.0.00 1.0.00 0.0.00 40.0.00 39.0.00"/>
    </vehicle>

    <vehicle id="30" depart="30.00" arrival="218.00">
        <route edges="-44.0.00 5.0.00 4.0.00 -53.0.00 -54.0.00 -54.169.16 -55.0.00 -56.0.00 -57.0.00 -58.0.00 -58.18.46 -67.0.00 77.0.00 -14.0.00 -64.0.00 -65.0.00 -66.0.00 1.0.00 0.0.00 40.0.00 -45.0.00 -38.0.00 -71.0.00 76.0.00 -43.0.00 -78.0.00 28.0.00"/>
    </vehicle>

    <vehicle id="35" depart="35.00" arrival="218.00">
        <route edges="-42.0.00 -43.0.00 -78.0.00 28.0.00 3.0.00 -36.0.00 4.0.00 -53.0.00 -54.0.00 -54.169.16 -55.0.00 -56.0.00 -57.0.00 -58.0.00 -58.18.46 -67.0.00 77.0.00 -14.0.00 -64.0.00 -65.0.00 -66.0.00 1.0.00 0.0.00 40.0.00 -45.0.00"/>
    </vehicle>

    <vehicle id="58" depart="58.00" arrival="220.00">
        <route edges="-54.0.00 -54.169.16 -55.0.00 -56.0.00 -57.0.00 -58.0.00 -58.18.46 -67.0.00 77.0.00 -14.0.00 -64.0.00 -65.0.00 -66.0.00 1.0.00 0.0.00 40.0.00 -45.0.00 -46.0.00 -79.0.00"/>
    </vehicle>

    <vehicle id="69" depart="69.00" arrival="220.00">
        <route edges="61.0.00 -57.0.00 -58.0.00 -58.18.46 -67.0.00 77.0.00 -14.0.00 -15.0.00 -16.0.00 -16.16.01 -17.0.00 -18.0.00 -29.0.00 -32.0.00"/>
    </vehicle>

    <vehicle id="92" depart="92.00" arrival="220.00">
        <route edges="22.0.00 -75.0.00 -12.0.00 -13.0.00 -14.0.00 -64.0.00 -65.0.00 -66.0.00 1.0.00 0.0.00 40.0.00 -45.0.00 -38.0.00 -71.0.00 76.0.00 -43.0.00 -44.0.00"/>
    </vehicle>

    <vehicle id="90" depart="90.00" arrival="224.00">
        <route edges="-9.0.00 -69.0.00 68.0.00 24.0.00 -7.0.00 48.0.00 49.0.00 -20.0.00 -21.0.00 39.0.00 30.0.00 -72.0.00 -70.0.00 -39.0.00 -40.0.00 -0.0.00 -1.0.00 66.0.00 65.0.00 64.0.00 63.0.00 62.0.00 61.0.00 -61.0.00 -62.0.00 -63.0.00 -64.0.00 -65.0.00 -66.0.00 1.0.00 0.0.00 40.0.00"/>
    </vehicle>

    <vehicle id="manual_vehicle_1" depart="1.00" arrival="225.00">
        <route edges="-46.0.00 -79.0.00 6.0.00 5.0.00 4.0.00 -53.0.00 -54.0.00 -54.169.16 -55.0.00 -56.0.00 -57.0.00 -58.0.00 -58.18.46 -67.0.00 77.0.00 -14.0.00 -64.0.00 -65.0.00 -66.0.00 1.0.00 0.0.00 40.0.00 39.0.00 30.0.00 -72.0.00 -70.0.00 -39.0.00 -40.0.00 -0.0.00 -41.0.00 -42.0.00"/>
    </vehicle>

    <vehicle id="94" depart="94.00" arrival="226.00">
        <route edges="-36.0.00 4.0.00 -53.0.00 -54.0.00 -54.169.16 -55.0.00 -56.0.00 -57.0.00 -58.0.00 -58.18.46 -67.0.00 77.0.00 -14.0.00 -15.0.00 -16.0.00 -16.16.01 -17.0.00 -18.0.00 -29.0.00 -32.0.00 -33.0.00 -34.0.00 -34.23.73"/>
    </vehicle>

    <vehicle id="86" depart="86.00" arrival="227.00">
        <route edges="-14.0.00 -64.0.00 -65.0.00 -66.0.00 1.0.00 0.0.00 40.0.00 -45.0.00 -46.0.00 -79.0.00 6.0.00 5.0.00"/>
    </vehicle>

    <vehicle id="53" depart="53.00" arrival="228.00">
        <route edges="-54.0.00 -54.169.16 -55.0.00 -56.0.00 -57.0.00 -58.0.00 -58.18.46 -67.0.00 77.0.00 -14.0.00 -64.0.00 -65.0.00 -66.0.00 1.0.00 0.0.00 40.0.00 -45.0.00 -38.0.00 -71.0.00 76.0.00 -43.0.00 -44.0.00"/>
    </vehicle>

    <vehicle id="95" depart="98.00" arrival="229.00">
        <route edges="77.0.00 -14.0.00 -64.0.00 -65.0.00 -66.0.00 1.0.00 0.0.00 40.0.00 -45.0.00 -46.0.00 -79.0.00 6.0.00 5.0.00"/>
    </vehicle>

    <vehicle id="75" depart="75.00" arrival="233.00">
        <route edges="-60.0.00 -61.0.00 -62.0.00 -63.0.00 -64.0.00 -65.0.00 -66.0.00 1.0.00 0.0.00 40.0.00 -45.0.00 -38.0.00 -71.0.00 76.0.00 -43.0.00 -44.0.00"/>
    </vehicle>

    <vehicle id="49" depart="49.00" arrival="234.00">
        <route edges="-1.0.00 66.0.00 65.0.00 64.0.00 63.0.00 62.0.00 61.0.00 -61.0.00 -62.0.00 -63.0.00 -64.0.00 -65.0.00 -66.0.00 1.0.00 0.0.00 40.0.00 -45.0.00 -46.0.00"/>
    </vehicle>

    <vehicle id="96" depart="96.00" arrival="245.00">
        <route edges="-72.0.00 -70.0.00 -39.0.00 -40.0.00 -0.0.00 -1.0.00 66.0.00 65.0.00 64.0.00 63.0.00 62.0.00 61.0.00 -57.0.00 -58.0.00 -58.18.46 -59.0.00 74.0.00 11.0.00"/>
    </vehicle>

    <vehicle id="89" depart="89.00" arrival="246.00">
        <route edges="-78.0.00 28.0.00 3.0.00 -36.0.00 4.0.00 -53.0.00 -54.0.00 -54.169.16 -55.0.00 -56.0.00 -57.0.00 -58.0.00 -58.18.46 -67.0.00 77.0.00 -14.0.00 -64.0.00 -65.0.00 -66.0.00 1.0.00 27.0.00 26.58.80 26.0.00 25.0.00 24.0.00 -7.0.00 48.0.00 49.0.00"/>
    </vehicle>

    <vehicle id="39" depart="40.00" arrival="259.00">
        <route edges="-46.0.00 -79.0.00 6.0.00 5.0.00 4.0.00 -53.0.00 -54.0.00 -54.169.16 -55.0.00 -56.0.00 -57.0.00 -58.0.00 -58.18.46 -67.0.00 77.0.00 -14.0.00 -64.0.00 -65.0.00 -66.0.00 1.0.00 0.0.00 40.0.00 39.0.00 30.0.00 -72.0.00 -70.0.00 -39.0.00 -40.0.00 -0.0.00 -41.0.00 -42.0.00"/>
    </vehicle>

    <vehicle id="98" depart="98.00" arrival="269.00">
        <route edges="-10.0.00 -50.0.00 -60.0.00 -61.0.00 -62.0.00 -63.0.00 -64.0.00 -65.0.00 -66.0.00 1.0.00 0.0.00 40.0.00 -45.0.00 -46.0.00 -79.0.00"/>
    </vehicle>

    <vehicle id="51" depart="51.00" arrival="275.00">
        <route edges="-43.0.00 -78.0.00 28.0.00 3.0.00 -36.0.00 4.0.00 -53.0.00 -54.0.00 -54.169.16 -55.0.00 -56.0.00 -57.0.00 -58.0.00 -58.18.46 -67.0.00 77.0.00 -14.0.00 -64.0.00 -65.0.00 -66.0.00 1.0.00 0.0.00 40.0.00 39.0.00 30.0.00 -72.0.00 -70.0.00 -39.0.00 -40.0.00 -0.0.00 -1.0.00 66.0.00 65.0.00 64.0.00 63.0.00 62.0.00 61.0.00 60.0.00 -52.0.00 -10.0.00 -50.0.00 -60.0.00"/>
    </vehicle>

    <vehicle id="52" depart="52.00" arrival="278.00">
        <route edges="-46.0.00 -79.0.00 6.0.00 5.0.00 4.0.00 -53.0.00 -54.0.00 -54.169.16 -55.0.00 -56.0.00 -57.0.00 -58.0.00 -58.18.46 -67.0.00 77.0.00 -14.0.00 -64.0.00 -65.0.00 -66.0.00 1.0.00 0.0.00 40.0.00 39.0.00 30.0.00 -72.0.00 -70.0.00 -39.0.00 -40.0.00 -0.0.00 -41.0.00 -8.0.00"/>
    </vehicle>

    <vehicle id="72" depart="72.00" arrival="287.00">
        <route edges="-43.0.00 -78.0.00 28.0.00 3.0.00 -36.0.00 4.0.00 -53.0.00 -54.0.00 -54.169.16 -55.0.00 -56.0.00 -57.0.00 -58.0.00 -58.18.46 -67.0.00 77.0.00 -14.0.00 -64.0.00 -65.0.00 -66.0.00 1.0.00 0.0.00 40.0.00 -45.0.00 -46.0.00"/>
    </vehicle>

    <vehicle id="77" depart="77.00" arrival="291.00">
        <route edges="-46.0.00 -79.0.00 6.0.00 5.0.00 4.0.00 -53.0.00 -54.0.00 -54.169.16 -55.0.00 -56.0.00 -57.0.00 -58.0.00 -58.18.46 -67.0.00 77.0.00 -14.0.00 -64.0.00 -65.0.00 -66.0.00 1.0.00 0.0.00 40.0.00 39.0.00 30.0.00 -72.0.00 -70.0.00 -39.0.00 -40.0.00 -0.0.00 -1.0.00 66.0.00 65.0.00 64.0.00 63.0.00"/>
    </vehicle>

</routes>
