<?xml version="1.0" encoding="UTF-8"?>

<!-- generated on Thu Jun 27 21:58:57 2019 by Eclipse SUMO Version 1.2.0
<configuration xmlns:xsi="http://www.w3.org/2001/XMLSchema-instance" xsi:noNamespaceSchemaLocation="http://sumo.dlr.de/xsd/sumoConfiguration.xsd">

    <input>
        <net-file value="simulations/Town06/Town06.net.xml"/>
        <route-files value="simulations/Town06/Town06.rou.xml"/>
        <additional-files value="simulations/Town06/Town06.poly.xml"/>
    </input>

    <output>
        <netstate-dump value="simulations/Town06/Town06.sumo.tr"/>
        <tripinfo-output value="simulations/Town06/Town06.tripinfo.xml"/>
        <vehroute-output value="simulations/Town06/Town06.vehroutes.xml"/>
    </output>

    <time>
        <begin value="0"/>
        <end value="1000"/>
    </time>

    <traci_server>
        <remote-port value="56569"/>
    </traci_server>

</configuration>
-->

<netstate xmlns:xsi="http://www.w3.org/2001/XMLSchema-instance" xsi:noNamespaceSchemaLocation="http://sumo.dlr.de/xsd/netstate_file.xsd">
    <timestep time="0.00">
        <edge id="31.0.00">
            <lane id="31.0.00_0">
                <vehicle id="manual_vehicle_0" pos="5.10" speed="0.00"/>
            </lane>
        </edge>
        <edge id="39.0.00">
            <lane id="39.0.00_0">
                <vehicle id="0" pos="5.10" speed="0.00"/>
            </lane>
            <lane id="39.0.00_1"/>
            <lane id="39.0.00_2"/>
        </edge>
    </timestep>
    <timestep time="1.00">
        <edge id="-46.0.00">
            <lane id="-46.0.00_0">
                <vehicle id="manual_vehicle_1" pos="5.10" speed="0.00"/>
            </lane>
            <lane id="-46.0.00_1"/>
            <lane id="-46.0.00_2"/>
            <lane id="-46.0.00_3"/>
            <lane id="-46.0.00_4"/>
        </edge>
        <edge id="31.0.00">
            <lane id="31.0.00_0">
                <vehicle id="manual_vehicle_0" pos="7.30" speed="2.20"/>
            </lane>
        </edge>
        <edge id="39.0.00">
            <lane id="39.0.00_0">
                <vehicle id="0" pos="6.46" speed="1.36"/>
            </lane>
            <lane id="39.0.00_1"/>
            <lane id="39.0.00_2"/>
        </edge>
    </timestep>
    <timestep time="2.00">
        <edge id="-46.0.00">
            <lane id="-46.0.00_0">
                <vehicle id="manual_vehicle_1" pos="7.70" speed="2.60"/>
            </lane>
            <lane id="-46.0.00_1"/>
            <lane id="-46.0.00_2"/>
            <lane id="-46.0.00_3"/>
            <lane id="-46.0.00_4"/>
        </edge>
        <edge id="3.0.00">
            <lane id="3.0.00_0">
                <vehicle id="manual_vehicle_2" pos="5.10" speed="0.00"/>
            </lane>
        </edge>
        <edge id="31.0.00">
            <lane id="31.0.00_0">
                <vehicle id="manual_vehicle_0" pos="11.52" speed="4.22"/>
            </lane>
        </edge>
        <edge id="39.0.00">
            <lane id="39.0.00_0">
                <vehicle id="0" pos="9.32" speed="2.86"/>
            </lane>
            <lane id="39.0.00_1"/>
            <lane id="39.0.00_2"/>
        </edge>
    </timestep>
    <timestep time="3.00">
        <edge id="-46.0.00">
            <lane id="-46.0.00_0">
                <vehicle id="manual_vehicle_1" pos="12.49" speed="4.79"/>
            </lane>
            <lane id="-46.0.00_1"/>
            <lane id="-46.0.00_2"/>
            <lane id="-46.0.00_3"/>
            <lane id="-46.0.00_4"/>
        </edge>
        <edge id="-79.0.00">
            <lane id="-79.0.00_0">
                <vehicle id="3" pos="5.10" speed="0.00"/>
            </lane>
            <lane id="-79.0.00_1"/>
            <lane id="-79.0.00_2"/>
            <lane id="-79.0.00_3"/>
            <lane id="-79.0.00_4"/>
        </edge>
        <edge id="3.0.00">
            <lane id="3.0.00_0">
                <vehicle id="manual_vehicle_2" pos="6.44" speed="1.34"/>
            </lane>
        </edge>
        <edge id="31.0.00">
            <lane id="31.0.00_0">
                <vehicle id="manual_vehicle_0" pos="18.32" speed="6.80"/>
            </lane>
        </edge>
        <edge id="39.0.00">
            <lane id="39.0.00_0">
                <vehicle id="0" pos="13.64" speed="4.32"/>
            </lane>
            <lane id="39.0.00_1"/>
            <lane id="39.0.00_2"/>
        </edge>
    </timestep>
    <timestep time="4.00">
        <edge id="-21.0.00">
            <lane id="-21.0.00_0">
                <vehicle id="4" pos="5.10" speed="0.00"/>
            </lane>
            <lane id="-21.0.00_1"/>
            <lane id="-21.0.00_2"/>
            <lane id="-21.0.00_3"/>
        </edge>
        <edge id="-46.0.00">
            <lane id="-46.0.00_0">
                <vehicle id="manual_vehicle_1" pos="18.96" speed="6.47"/>
            </lane>
            <lane id="-46.0.00_1"/>
            <lane id="-46.0.00_2"/>
            <lane id="-46.0.00_3"/>
            <lane id="-46.0.00_4"/>
        </edge>
        <edge id="-79.0.00">
            <lane id="-79.0.00_0">
                <vehicle id="3" pos="6.40" speed="1.30"/>
            </lane>
            <lane id="-79.0.00_1"/>
            <lane id="-79.0.00_2"/>
            <lane id="-79.0.00_3"/>
            <lane id="-79.0.00_4"/>
        </edge>
        <edge id="3.0.00">
            <lane id="3.0.00_0">
                <vehicle id="manual_vehicle_2" pos="9.84" speed="3.40"/>
            </lane>
        </edge>
        <edge id="31.0.00">
            <lane id="31.0.00_0">
                <vehicle id="manual_vehicle_0" pos="27.30" speed="8.98"/>
            </lane>
        </edge>
        <edge id="39.0.00">
            <lane id="39.0.00_0">
                <vehicle id="0" pos="20.51" speed="6.87"/>
            </lane>
            <lane id="39.0.00_1"/>
            <lane id="39.0.00_2"/>
        </edge>
    </timestep>
    <timestep time="5.00">
        <edge id="-21.0.00">
            <lane id="-21.0.00_0"/>
            <lane id="-21.0.00_1">
                <vehicle id="4" pos="6.65" speed="1.55"/>
            </lane>
            <lane id="-21.0.00_2"/>
            <lane id="-21.0.00_3"/>
        </edge>
        <edge id="-43.0.00">
            <lane id="-43.0.00_0">
                <vehicle id="5" pos="5.10" speed="0.00"/>
            </lane>
            <lane id="-43.0.00_1"/>
            <lane id="-43.0.00_2"/>
            <lane id="-43.0.00_3"/>
            <lane id="-43.0.00_4"/>
        </edge>
        <edge id="-46.0.00">
            <lane id="-46.0.00_0">
                <vehicle id="manual_vehicle_1" pos="27.18" speed="8.22"/>
            </lane>
            <lane id="-46.0.00_1"/>
            <lane id="-46.0.00_2"/>
            <lane id="-46.0.00_3"/>
            <lane id="-46.0.00_4"/>
        </edge>
        <edge id="-79.0.00">
            <lane id="-79.0.00_0">
                <vehicle id="3" pos="9.37" speed="2.96"/>
            </lane>
            <lane id="-79.0.00_1"/>
            <lane id="-79.0.00_2"/>
            <lane id="-79.0.00_3"/>
            <lane id="-79.0.00_4"/>
        </edge>
        <edge id="3.0.00">
            <lane id="3.0.00_0">
                <vehicle id="manual_vehicle_2" pos="14.84" speed="5.00"/>
            </lane>
        </edge>
        <edge id="31.0.00">
            <lane id="31.0.00_0">
                <vehicle id="manual_vehicle_0" pos="38.22" speed="10.92"/>
            </lane>
        </edge>
        <edge id="39.0.00">
            <lane id="39.0.00_0">
                <vehicle id="0" pos="29.44" speed="8.93"/>
            </lane>
            <lane id="39.0.00_1"/>
            <lane id="39.0.00_2"/>
        </edge>
    </timestep>
    <timestep time="6.00">
        <edge id="-21.0.00">
            <lane id="-21.0.00_0"/>
            <lane id="-21.0.00_1"/>
            <lane id="-21.0.00_2">
                <vehicle id="4" pos="9.95" speed="3.30"/>
            </lane>
            <lane id="-21.0.00_3"/>
        </edge>
        <edge id="-43.0.00">
            <lane id="-43.0.00_0"/>
            <lane id="-43.0.00_1">
                <vehicle id="5" pos="7.46" speed="2.36"/>
            </lane>
            <lane id="-43.0.00_2"/>
            <lane id="-43.0.00_3"/>
            <lane id="-43.0.00_4"/>
        </edge>
        <edge id="-46.0.00">
            <lane id="-46.0.00_0">
                <vehicle id="manual_vehicle_1" pos="37.11" speed="9.93"/>
            </lane>
            <lane id="-46.0.00_1"/>
            <lane id="-46.0.00_2"/>
            <lane id="-46.0.00_3"/>
            <lane id="-46.0.00_4"/>
        </edge>
        <edge id="-79.0.00">
            <lane id="-79.0.00_0">
                <vehicle id="3" pos="14.30" speed="4.93"/>
            </lane>
            <lane id="-79.0.00_1"/>
            <lane id="-79.0.00_2"/>
            <lane id="-79.0.00_3"/>
            <lane id="-79.0.00_4"/>
        </edge>
        <edge id="3.0.00">
            <lane id="3.0.00_0">
                <vehicle id="manual_vehicle_2" pos="21.69" speed="6.86"/>
            </lane>
        </edge>
        <edge id="31.0.00">
            <lane id="31.0.00_0">
                <vehicle id="6" pos="5.10" speed="0.00"/>
                <vehicle id="manual_vehicle_0" pos="47.48" speed="9.26"/>
            </lane>
        </edge>
        <edge id="39.0.00">
            <lane id="39.0.00_0">
                <vehicle id="0" pos="40.78" speed="11.34"/>
            </lane>
            <lane id="39.0.00_1"/>
            <lane id="39.0.00_2"/>
        </edge>
    </timestep>
    <timestep time="7.00">
        <edge id="-21.0.00">
            <lane id="-21.0.00_0"/>
            <lane id="-21.0.00_1"/>
            <lane id="-21.0.00_2">
                <vehicle id="4" pos="15.51" speed="5.55"/>
            </lane>
            <lane id="-21.0.00_3"/>
        </edge>
        <edge id="-43.0.00">
            <lane id="-43.0.00_0"/>
            <lane id="-43.0.00_1"/>
            <lane id="-43.0.00_2">
                <vehicle id="5" pos="12.37" speed="4.91"/>
            </lane>
            <lane id="-43.0.00_3"/>
            <lane id="-43.0.00_4"/>
        </edge>
        <edge id="-46.0.00">
            <lane id="-46.0.00_0">
                <vehicle id="7" pos="5.10" speed="0.00"/>
                <vehicle id="manual_vehicle_1" pos="48.41" speed="11.30"/>
            </lane>
            <lane id="-46.0.00_1"/>
            <lane id="-46.0.00_2"/>
            <lane id="-46.0.00_3"/>
            <lane id="-46.0.00_4"/>
        </edge>
        <edge id="-79.0.00">
            <lane id="-79.0.00_0">
                <vehicle id="3" pos="21.14" speed="6.84"/>
            </lane>
            <lane id="-79.0.00_1"/>
            <lane id="-79.0.00_2"/>
            <lane id="-79.0.00_3"/>
            <lane id="-79.0.00_4"/>
        </edge>
        <edge id="3.0.00">
            <lane id="3.0.00_0">
                <vehicle id="manual_vehicle_2" pos="31.08" speed="9.39"/>
            </lane>
        </edge>
        <edge id="31.0.00">
            <lane id="31.0.00_0">
                <vehicle id="6" pos="6.86" speed="1.76"/>
                <vehicle id="manual_vehicle_0" pos="52.23" speed="4.76"/>
            </lane>
        </edge>
        <edge id="39.0.00">
            <lane id="39.0.00_0">
                <vehicle id="0" pos="54.61" speed="13.83"/>
            </lane>
            <lane id="39.0.00_1"/>
            <lane id="39.0.00_2"/>
        </edge>
    </timestep>
    <timestep time="8.00">
        <edge id=":188_5">
            <lane id=":188_5_0">
                <vehicle id="manual_vehicle_0" pos="5.59" speed="6.84"/>
            </lane>
            <lane id=":188_5_1"/>
        </edge>
        <edge id="-21.0.00">
            <lane id="-21.0.00_0"/>
            <lane id="-21.0.00_1"/>
            <lane id="-21.0.00_2">
                <vehicle id="4" pos="23.53" speed="8.03"/>
            </lane>
            <lane id="-21.0.00_3"/>
        </edge>
        <edge id="-43.0.00">
            <lane id="-43.0.00_0"/>
            <lane id="-43.0.00_1"/>
            <lane id="-43.0.00_2"/>
            <lane id="-43.0.00_3">
                <vehicle id="5" pos="19.87" speed="7.49"/>
            </lane>
            <lane id="-43.0.00_4"/>
        </edge>
        <edge id="-46.0.00">
            <lane id="-46.0.00_0">
                <vehicle id="7" pos="6.69" speed="1.59"/>
                <vehicle id="manual_vehicle_1" pos="61.06" speed="12.64"/>
            </lane>
            <lane id="-46.0.00_1"/>
            <lane id="-46.0.00_2"/>
            <lane id="-46.0.00_3"/>
            <lane id="-46.0.00_4"/>
        </edge>
        <edge id="-79.0.00">
            <lane id="-79.0.00_0">
                <vehicle id="3" pos="30.44" speed="9.31"/>
            </lane>
            <lane id="-79.0.00_1"/>
            <lane id="-79.0.00_2"/>
            <lane id="-79.0.00_3"/>
            <lane id="-79.0.00_4"/>
        </edge>
        <edge id="3.0.00">
            <lane id="3.0.00_0">
                <vehicle id="manual_vehicle_2" pos="37.49" speed="6.41"/>
            </lane>
        </edge>
        <edge id="31.0.00">
            <lane id="31.0.00_0">
                <vehicle id="6" pos="11.21" speed="4.35"/>
            </lane>
        </edge>
        <edge id="39.0.00">
            <lane id="39.0.00_0">
                <vehicle id="0" pos="69.16" speed="14.55"/>
            </lane>
            <lane id="39.0.00_1"/>
            <lane id="39.0.00_2"/>
        </edge>
    </timestep>
    <timestep time="9.00">
        <edge id=":104_0">
            <lane id=":104_0_0">
                <vehicle id="manual_vehicle_2" pos="4.49" speed="8.18"/>
            </lane>
        </edge>
        <edge id=":188_5">
            <lane id=":188_5_0">
                <vehicle id="manual_vehicle_0" pos="14.10" speed="8.51"/>
            </lane>
            <lane id=":188_5_1"/>
        </edge>
        <edge id="-21.0.00">
            <lane id="-21.0.00_0"/>
            <lane id="-21.0.00_1"/>
            <lane id="-21.0.00_2">
                <vehicle id="4" pos="32.90" speed="9.36"/>
            </lane>
            <lane id="-21.0.00_3"/>
        </edge>
        <edge id="-42.0.00">
            <lane id="-42.0.00_0">
                <vehicle id="9" pos="5.10" speed="0.00"/>
            </lane>
            <lane id="-42.0.00_1"/>
            <lane id="-42.0.00_2"/>
            <lane id="-42.0.00_3"/>
            <lane id="-42.0.00_4"/>
        </edge>
        <edge id="-43.0.00">
            <lane id="-43.0.00_0"/>
            <lane id="-43.0.00_1"/>
            <lane id="-43.0.00_2"/>
            <lane id="-43.0.00_3"/>
            <lane id="-43.0.00_4">
                <vehicle id="5" pos="29.02" speed="9.16"/>
            </lane>
        </edge>
        <edge id="-46.0.00">
            <lane id="-46.0.00_0">
                <vehicle id="7" pos="10.00" speed="3.31"/>
                <vehicle id="manual_vehicle_1" pos="73.99" speed="12.93"/>
            </lane>
            <lane id="-46.0.00_1"/>
            <lane id="-46.0.00_2"/>
            <lane id="-46.0.00_3"/>
            <lane id="-46.0.00_4"/>
        </edge>
        <edge id="-79.0.00">
            <lane id="-79.0.00_0">
                <vehicle id="3" pos="41.29" speed="10.85"/>
            </lane>
            <lane id="-79.0.00_1"/>
            <lane id="-79.0.00_2"/>
            <lane id="-79.0.00_3"/>
            <lane id="-79.0.00_4"/>
        </edge>
        <edge id="31.0.00">
            <lane id="31.0.00_0">
                <vehicle id="6" pos="16.93" speed="5.71"/>
            </lane>
        </edge>
        <edge id="39.0.00">
            <lane id="39.0.00_0">
                <vehicle id="0" pos="82.79" speed="13.63"/>
            </lane>
            <lane id="39.0.00_1"/>
            <lane id="39.0.00_2"/>
        </edge>
    </timestep>
    <timestep time="10.00">
        <edge id=":104_0">
            <lane id=":104_0_0">
                <vehicle id="manual_vehicle_2" pos="14.11" speed="9.62"/>
            </lane>
        </edge>
        <edge id="-21.0.00">
            <lane id="-21.0.00_0"/>
            <lane id="-21.0.00_1"/>
            <lane id="-21.0.00_2">
                <vehicle id="4" pos="43.68" speed="10.79"/>
            </lane>
            <lane id="-21.0.00_3"/>
        </edge>
        <edge id="-42.0.00">
            <lane id="-42.0.00_0">
                <vehicle id="9" pos="6.42" speed="1.32"/>
            </lane>
            <lane id="-42.0.00_1"/>
            <lane id="-42.0.00_2"/>
            <lane id="-42.0.00_3"/>
            <lane id="-42.0.00_4"/>
        </edge>
        <edge id="-43.0.00">
            <lane id="-43.0.00_0"/>
            <lane id="-43.0.00_1"/>
            <lane id="-43.0.00_2"/>
            <lane id="-43.0.00_3"/>
            <lane id="-43.0.00_4">
                <vehicle id="5" pos="40.28" speed="11.26"/>
            </lane>
        </edge>
        <edge id="-46.0.00">
            <lane id="-46.0.00_0">
                <vehicle id="8" pos="5.10" speed="0.00"/>
                <vehicle id="7" pos="14.90" speed="4.90"/>
                <vehicle id="manual_vehicle_1" pos="86.44" speed="12.45"/>
            </lane>
            <lane id="-46.0.00_1"/>
            <lane id="-46.0.00_2"/>
            <lane id="-46.0.00_3"/>
            <lane id="-46.0.00_4"/>
        </edge>
        <edge id="-54.0.00">
            <lane id="-54.0.00_0"/>
            <lane id="-54.0.00_1"/>
            <lane id="-54.0.00_2"/>
            <lane id="-54.0.00_3">
                <vehicle id="manual_vehicle_0" pos="8.60" speed="10.87"/>
            </lane>
            <lane id="-54.0.00_4"/>
        </edge>
        <edge id="-79.0.00">
            <lane id="-79.0.00_0">
                <vehicle id="3" pos="53.95" speed="12.66"/>
            </lane>
            <lane id="-79.0.00_1"/>
            <lane id="-79.0.00_2"/>
            <lane id="-79.0.00_3"/>
            <lane id="-79.0.00_4"/>
        </edge>
        <edge id="11.0.00">
            <lane id="11.0.00_0">
                <vehicle id="10" pos="5.10" speed="0.00"/>
            </lane>
            <lane id="11.0.00_1"/>
            <lane id="11.0.00_2"/>
            <lane id="11.0.00_3"/>
        </edge>
        <edge id="30.0.00">
            <lane id="30.0.00_0">
                <vehicle id="0" pos="10.08" speed="14.18"/>
            </lane>
            <lane id="30.0.00_1"/>
            <lane id="30.0.00_2"/>
        </edge>
        <edge id="31.0.00">
            <lane id="31.0.00_0">
                <vehicle id="6" pos="24.35" speed="7.42"/>
            </lane>
        </edge>
    </timestep>
    <timestep time="11.00">
        <edge id="-21.0.00">
            <lane id="-21.0.00_0"/>
            <lane id="-21.0.00_1"/>
            <lane id="-21.0.00_2">
                <vehicle id="4" pos="56.00" speed="12.32"/>
            </lane>
            <lane id="-21.0.00_3"/>
        </edge>
        <edge id="-36.0.00">
            <lane id="-36.0.00_0">
                <vehicle id="manual_vehicle_2" pos="7.82" speed="11.30"/>
            </lane>
            <lane id="-36.0.00_1"/>
            <lane id="-36.0.00_2"/>
            <lane id="-36.0.00_3"/>
            <lane id="-36.0.00_4"/>
        </edge>
        <edge id="-42.0.00">
            <lane id="-42.0.00_0"/>
            <lane id="-42.0.00_1">
                <vehicle id="9" pos="9.62" speed="3.20"/>
            </lane>
            <lane id="-42.0.00_2"/>
            <lane id="-42.0.00_3"/>
            <lane id="-42.0.00_4"/>
        </edge>
        <edge id="-43.0.00">
            <lane id="-43.0.00_0"/>
            <lane id="-43.0.00_1"/>
            <lane id="-43.0.00_2"/>
            <lane id="-43.0.00_3"/>
            <lane id="-43.0.00_4">
                <vehicle id="5" pos="53.15" speed="12.87"/>
            </lane>
        </edge>
        <edge id="-46.0.00">
            <lane id="-46.0.00_0">
                <vehicle id="8" pos="7.10" speed="2.00"/>
                <vehicle id="7" pos="21.33" speed="6.43"/>
                <vehicle id="manual_vehicle_1" pos="99.10" speed="12.66"/>
            </lane>
            <lane id="-46.0.00_1"/>
            <lane id="-46.0.00_2"/>
            <lane id="-46.0.00_3"/>
            <lane id="-46.0.00_4"/>
        </edge>
        <edge id="-54.0.00">
            <lane id="-54.0.00_0"/>
            <lane id="-54.0.00_1"/>
            <lane id="-54.0.00_2"/>
            <lane id="-54.0.00_3">
                <vehicle id="manual_vehicle_0" pos="21.89" speed="13.29"/>
            </lane>
            <lane id="-54.0.00_4"/>
        </edge>
        <edge id="-72.0.00">
            <lane id="-72.0.00_0">
                <vehicle id="0" pos="11.46" speed="13.84"/>
            </lane>
            <lane id="-72.0.00_1"/>
            <lane id="-72.0.00_2"/>
        </edge>
        <edge id="-79.0.00">
            <lane id="-79.0.00_0">
                <vehicle id="3" pos="66.00" speed="12.05"/>
            </lane>
            <lane id="-79.0.00_1"/>
            <lane id="-79.0.00_2"/>
            <lane id="-79.0.00_3"/>
            <lane id="-79.0.00_4"/>
        </edge>
        <edge id="11.0.00">
            <lane id="11.0.00_0">
                <vehicle id="10" pos="6.48" speed="1.38"/>
            </lane>
            <lane id="11.0.00_1"/>
            <lane id="11.0.00_2"/>
            <lane id="11.0.00_3"/>
        </edge>
        <edge id="31.0.00">
            <lane id="31.0.00_0">
                <vehicle id="6" pos="33.34" speed="9.00"/>
            </lane>
        </edge>
    </timestep>
    <timestep time="12.00">
        <edge id="-16.0.00">
            <lane id="-16.0.00_0">
                <vehicle id="12" pos="5.10" speed="0.00"/>
            </lane>
            <lane id="-16.0.00_1"/>
            <lane id="-16.0.00_2"/>
            <lane id="-16.0.00_3"/>
            <lane id="-16.0.00_4"/>
        </edge>
        <edge id="-21.0.00">
            <lane id="-21.0.00_0"/>
            <lane id="-21.0.00_1"/>
            <lane id="-21.0.00_2">
                <vehicle id="4" pos="68.80" speed="12.80"/>
            </lane>
            <lane id="-21.0.00_3"/>
        </edge>
        <edge id="-36.0.00">
            <lane id="-36.0.00_0">
                <vehicle id="manual_vehicle_2" pos="21.11" speed="13.29"/>
            </lane>
            <lane id="-36.0.00_1"/>
            <lane id="-36.0.00_2"/>
            <lane id="-36.0.00_3"/>
            <lane id="-36.0.00_4"/>
        </edge>
        <edge id="-42.0.00">
            <lane id="-42.0.00_0"/>
            <lane id="-42.0.00_1"/>
            <lane id="-42.0.00_2">
                <vehicle id="9" pos="14.53" speed="4.91"/>
            </lane>
            <lane id="-42.0.00_3"/>
            <lane id="-42.0.00_4"/>
        </edge>
        <edge id="-43.0.00">
            <lane id="-43.0.00_0"/>
            <lane id="-43.0.00_1"/>
            <lane id="-43.0.00_2"/>
            <lane id="-43.0.00_3"/>
            <lane id="-43.0.00_4">
                <vehicle id="5" pos="67.94" speed="14.79"/>
            </lane>
        </edge>
        <edge id="-46.0.00">
            <lane id="-46.0.00_0">
                <vehicle id="8" pos="11.00" speed="3.91"/>
                <vehicle id="7" pos="29.92" speed="8.58"/>
                <vehicle id="manual_vehicle_1" pos="111.24" speed="12.15"/>
            </lane>
            <lane id="-46.0.00_1"/>
            <lane id="-46.0.00_2"/>
            <lane id="-46.0.00_3"/>
            <lane id="-46.0.00_4"/>
        </edge>
        <edge id="-54.0.00">
            <lane id="-54.0.00_0"/>
            <lane id="-54.0.00_1"/>
            <lane id="-54.0.00_2"/>
            <lane id="-54.0.00_3">
                <vehicle id="manual_vehicle_0" pos="35.47" speed="13.58"/>
            </lane>
            <lane id="-54.0.00_4"/>
        </edge>
        <edge id="-72.0.00">
            <lane id="-72.0.00_0">
                <vehicle id="0" pos="24.96" speed="13.50"/>
            </lane>
            <lane id="-72.0.00_1"/>
            <lane id="-72.0.00_2"/>
        </edge>
        <edge id="-79.0.00">
            <lane id="-79.0.00_0">
                <vehicle id="3" pos="78.72" speed="12.72"/>
            </lane>
            <lane id="-79.0.00_1"/>
            <lane id="-79.0.00_2"/>
            <lane id="-79.0.00_3"/>
            <lane id="-79.0.00_4"/>
        </edge>
        <edge id="11.0.00">
            <lane id="11.0.00_0">
                <vehicle id="10" pos="9.18" speed="2.70"/>
            </lane>
            <lane id="11.0.00_1"/>
            <lane id="11.0.00_2"/>
            <lane id="11.0.00_3"/>
        </edge>
        <edge id="31.0.00">
            <lane id="31.0.00_0">
                <vehicle id="6" pos="43.33" speed="9.98"/>
            </lane>
        </edge>
    </timestep>
    <timestep time="13.00">
        <edge id=":155_8">
            <lane id=":155_8_0">
                <vehicle id="4" pos="1.02" speed="13.67"/>
            </lane>
            <lane id=":155_8_1"/>
        </edge>
        <edge id="-15.0.00">
            <lane id="-15.0.00_0">
                <vehicle id="13" pos="5.10" speed="0.00"/>
            </lane>
            <lane id="-15.0.00_1"/>
            <lane id="-15.0.00_2"/>
            <lane id="-15.0.00_3"/>
        </edge>
        <edge id="-16.0.00">
            <lane id="-16.0.00_0"/>
            <lane id="-16.0.00_1">
                <vehicle id="12" pos="6.64" speed="1.54"/>
            </lane>
            <lane id="-16.0.00_2"/>
            <lane id="-16.0.00_3"/>
            <lane id="-16.0.00_4"/>
        </edge>
        <edge id="-36.0.00">
            <lane id="-36.0.00_0">
                <vehicle id="manual_vehicle_2" pos="33.98" speed="12.87"/>
            </lane>
            <lane id="-36.0.00_1"/>
            <lane id="-36.0.00_2"/>
            <lane id="-36.0.00_3"/>
            <lane id="-36.0.00_4"/>
        </edge>
        <edge id="-42.0.00">
            <lane id="-42.0.00_0"/>
            <lane id="-42.0.00_1"/>
            <lane id="-42.0.00_2">
                <vehicle id="9" pos="20.83" speed="6.30"/>
            </lane>
            <lane id="-42.0.00_3"/>
            <lane id="-42.0.00_4"/>
        </edge>
        <edge id="-43.0.00">
            <lane id="-43.0.00_0"/>
            <lane id="-43.0.00_1"/>
            <lane id="-43.0.00_2"/>
            <lane id="-43.0.00_3"/>
            <lane id="-43.0.00_4">
                <vehicle id="5" pos="82.64" speed="14.70"/>
            </lane>
        </edge>
        <edge id="-46.0.00">
            <lane id="-46.0.00_0">
                <vehicle id="8" pos="17.39" speed="6.39"/>
                <vehicle id="7" pos="40.42" speed="10.50"/>
                <vehicle id="manual_vehicle_1" pos="123.21" speed="11.97"/>
            </lane>
            <lane id="-46.0.00_1"/>
            <lane id="-46.0.00_2"/>
            <lane id="-46.0.00_3"/>
            <lane id="-46.0.00_4"/>
        </edge>
        <edge id="-54.0.00">
            <lane id="-54.0.00_0"/>
            <lane id="-54.0.00_1"/>
            <lane id="-54.0.00_2"/>
            <lane id="-54.0.00_3">
                <vehicle id="manual_vehicle_0" pos="50.02" speed="14.55"/>
            </lane>
            <lane id="-54.0.00_4"/>
        </edge>
        <edge id="-72.0.00">
            <lane id="-72.0.00_0">
                <vehicle id="0" pos="39.60" speed="14.64"/>
            </lane>
            <lane id="-72.0.00_1"/>
            <lane id="-72.0.00_2"/>
        </edge>
        <edge id="-79.0.00">
            <lane id="-79.0.00_0">
                <vehicle id="3" pos="91.57" speed="12.85"/>
            </lane>
            <lane id="-79.0.00_1"/>
            <lane id="-79.0.00_2"/>
            <lane id="-79.0.00_3"/>
            <lane id="-79.0.00_4"/>
        </edge>
        <edge id="11.0.00">
            <lane id="11.0.00_0">
                <vehicle id="10" pos="13.32" speed="4.14"/>
            </lane>
            <lane id="11.0.00_1"/>
            <lane id="11.0.00_2"/>
            <lane id="11.0.00_3"/>
        </edge>
        <edge id="31.0.00">
            <lane id="31.0.00_0">
                <vehicle id="6" pos="49.91" speed="6.59"/>
            </lane>
        </edge>
    </timestep>
    <timestep time="14.00">
        <edge id=":155_8">
            <lane id=":155_8_0">
                <vehicle id="4" pos="15.03" speed="14.02"/>
            </lane>
            <lane id=":155_8_1"/>
        </edge>
        <edge id=":16.15_0">
            <lane id=":16.15_0_0"/>
            <lane id=":16.15_0_1">
                <vehicle id="13" pos="1.24" speed="1.63"/>
            </lane>
            <lane id=":16.15_0_2"/>
            <lane id=":16.15_0_3"/>
        </edge>
        <edge id=":188_5">
            <lane id=":188_5_0">
                <vehicle id="6" pos="5.31" speed="8.89"/>
            </lane>
            <lane id=":188_5_1"/>
        </edge>
        <edge id="-16.0.00">
            <lane id="-16.0.00_0"/>
            <lane id="-16.0.00_1"/>
            <lane id="-16.0.00_2">
                <vehicle id="12" pos="10.43" speed="3.79"/>
            </lane>
            <lane id="-16.0.00_3"/>
            <lane id="-16.0.00_4"/>
        </edge>
        <edge id="-36.0.00">
            <lane id="-36.0.00_0">
                <vehicle id="manual_vehicle_2" pos="47.85" speed="13.87"/>
            </lane>
            <lane id="-36.0.00_1"/>
            <lane id="-36.0.00_2"/>
            <lane id="-36.0.00_3"/>
            <lane id="-36.0.00_4"/>
        </edge>
        <edge id="-42.0.00">
            <lane id="-42.0.00_0"/>
            <lane id="-42.0.00_1"/>
            <lane id="-42.0.00_2"/>
            <lane id="-42.0.00_3">
                <vehicle id="9" pos="28.81" speed="7.98"/>
            </lane>
            <lane id="-42.0.00_4"/>
        </edge>
        <edge id="-43.0.00">
            <lane id="-43.0.00_0"/>