<?xml version="1.0" encoding="UTF-8"?>

<!-- generated on Fri Aug 30 10:30:19 2019 by Eclipse SUMO Version 1.2.0
<configuration xmlns:xsi="http://www.w3.org/2001/XMLSchema-instance" xsi:noNamespaceSchemaLocation="http://sumo.dlr.de/xsd/sumoConfiguration.xsd">

    <input>
        <net-file value="simulations/Town05/Town05.net.xml"/>
        <route-files value="simulations/Town05/Town05.rou.xml"/>
        <additional-files value="simulations/Town05/Town05.poly.xml"/>
    </input>

    <output>
        <netstate-dump value="simulations/Town05/Town05.sumo.tr"/>
        <tripinfo-output value="simulations/Town05/Town05.tripinfo.xml"/>
        <vehroute-output value="simulations/Town05/Town05.vehroutes.xml"/>
    </output>

    <time>
        <begin value="0"/>
        <end value="1000"/>
    </time>

    <traci_server>
        <remote-port value="39137"/>
    </traci_server>

</configuration>
-->

<routes xmlns:xsi="http://www.w3.org/2001/XMLSchema-instance" xsi:noNamespaceSchemaLocation="http://sumo.dlr.de/xsd/routes_file.xsd">
</routes>
