<?xml version="1.0" encoding="UTF-8"?>

<!-- generated on 2019年05月31日 星期五 10时32分05秒 by Eclipse SUMO GUI Version 1.2.0
<configuration xmlns:xsi="http://www.w3.org/2001/XMLSchema-instance" xsi:noNamespaceSchemaLocation="http://sumo.dlr.de/xsd/sumoConfiguration.xsd">

    <input>
        <net-file value="/home/autolab/zwh/sumo/simulations/Tongji/tongji.net.xml"/>
        <route-files value="/home/autolab/zwh/sumo/simulations/Tongji/tongji.rou.xml"/>
        <additional-files value="/home/autolab/zwh/sumo/simulations/Tongji/tongji.poly.xml"/>
    </input>

    <output>
        <netstate-dump value="/home/autolab/zwh/sumo/simulations/Tongji/tongji.sumo.tr"/>
        <tripinfo-output value="/home/autolab/zwh/sumo/simulations/Tongji/output-tripinfos.xml"/>
        <vehroute-output value="/home/autolab/zwh/sumo/simulations/Tongji/output-vehroutes.xml"/>
    </output>

    <time>
        <begin value="0"/>
        <end value="10000"/>
    </time>

</configuration>
-->

<routes xmlns:xsi="http://www.w3.org/2001/XMLSchema-instance" xsi:noNamespaceSchemaLocation="http://sumo.dlr.de/xsd/routes_file.xsd">
</routes>
